 INFO
nunit      1    1    1
unit   cell
celltype   primcell
shape   parapipedal
 END_INFO
 DIM-GROUP
           3           1
 PRIMVEC
   -4.1352949850   -7.1625376780    0.0000000000
   -8.2705899700    0.0000000000    0.0000000000
   -4.1352949850   -2.3875125600   -6.8217314780
 CONVVEC
   -4.1352949850   -7.1625376780    0.0000000000
   -8.2705899700    0.0000000000    0.0000000000
   -4.1352949850   -2.3875125600   -6.8217314780
 PRIMCOORD
          36           1
 32     -8.2705899700    -4.7750251190    -6.2621358000     0.0000000000     0.0000000000     0.0008314900
 32    -12.4058849540    -7.1625376780    -2.8512700610     0.0000000000     0.0000000000     0.0008314900
 32     -8.2705899700    -4.7750251190    -0.5595956770     0.0000000000     0.0000000000    -0.0008314900
 32     -4.1352949850    -2.3875125600    -3.9704614160     0.0000000000     0.0000000000    -0.0008314900
  3     -8.2705899700    -4.7750251190    -3.4108657390     0.0000000000     0.0000000000     0.0000000000
  3      0.0000000000     0.0000000000     0.0000000000     0.0000000000     0.0000000000     0.0000000000
  8     -2.5447193340    -2.3498067200    -0.4112239560    -0.0001862700     0.0000844700     0.0004260200
  8     -4.8979285800    -3.7838437580    -0.4112239560     0.0001662900     0.0001190700     0.0004260200
  8     -4.9632370410    -1.0288872020    -0.4112239560     0.0000199800    -0.0002035500     0.0004260200
  8    -11.5779428990    -5.8039123210    -3.8220896950    -0.0000199800    -0.0002035500     0.0004260200
  8     -7.5079563750    -1.3963311980    -3.8220896950    -0.0001662900     0.0001190700     0.0004260200
  8     -5.7258706360    -7.1248318390    -3.8220896950     0.0001862700     0.0000844700     0.0004260200
  8    -13.9964606050    -7.2002435180    -6.4105075210     0.0001862700    -0.0000844700    -0.0004260200
  8    -11.6432513590    -5.7662064800    -6.4105075210    -0.0001662900    -0.0001190700    -0.0004260200
  8    -11.5779428980    -8.5211630360    -6.4105075210    -0.0000199800     0.0002035500    -0.0004260200
  8     -4.9632370400    -3.7461379170    -2.9996417820     0.0000199800     0.0002035500    -0.0004260200
  8     -9.0332235640    -8.1537190400    -2.9996417820     0.0001662900    -0.0001190700    -0.0004260200
  8    -10.8153093030    -2.4252183990    -2.9996417820    -0.0001862700    -0.0000844700    -0.0004260200
  8     -7.4154427650    -5.9116989350    -4.9987940780     0.0004738400     0.0004783800     0.0001864500
  8     -9.6825524310    -4.9472670680    -4.9987940780     0.0001773700    -0.0006495500     0.0001864500
  8     -7.7137747120    -3.4661093530    -4.9987940780    -0.0006512100     0.0001711700     0.0001864500
  8     -4.6921102430    -5.8536219130    -1.5879283390     0.0006512100     0.0001711700     0.0001864500
  8    -10.9939224930    -7.3347796280    -1.5879283390    -0.0001773700    -0.0006495500     0.0001864500
  8     -9.1257371740    -1.1366738160    -1.5879283390    -0.0004738400     0.0004783800     0.0001864500
  8     -9.1257371740    -3.6383513030    -1.8229374000    -0.0004738400    -0.0004783800    -0.0001864500
  8     -6.8586275080    -4.6027831700    -1.8229374000    -0.0001773700     0.0006495500    -0.0001864500
  8     -8.8274052270    -6.0839408850    -1.8229374000     0.0006512100    -0.0001711700    -0.0001864500
  8    -11.8490696970    -3.6964283250    -5.2338031390    -0.0006512100    -0.0001711700    -0.0001864500
  8     -5.5472574470    -2.2152706100    -5.2338031390     0.0001773700     0.0006495500    -0.0001864500
  8     -7.4154427650    -8.4133764220    -5.2338031390     0.0004738400    -0.0004783800    -0.0001864500
 15    -10.0122657010    -2.3875125600    -1.7054328690    -0.0008243800     0.0000000000     0.0000000000
 15     -5.3321046120    -4.4604466740    -1.7054328690     0.0004121900     0.0007139400     0.0000000000
 15     -9.4673995960    -7.4771161240    -1.7054328690     0.0004121900    -0.0007139400     0.0000000000
 15    -11.2090753280    -5.0896035640    -5.1162986080    -0.0004121900    -0.0007139400     0.0000000000
 15     -7.0737803430    -2.0729341140    -5.1162986080    -0.0004121900     0.0007139400     0.0000000000
 15     -6.5289142390    -7.1625376780    -5.1162986080     0.0008243800     0.0000000000     0.0000000000
 CONVCOORD
          36           1
 32     -8.2705899700    -4.7750251190    -6.2621358000
 32    -12.4058849540    -7.1625376780    -2.8512700610
 32     -8.2705899700    -4.7750251190    -0.5595956770
 32     -4.1352949850    -2.3875125600    -3.9704614160
  3     -8.2705899700    -4.7750251190    -3.4108657390
  3     -0.0000000000     0.0000000000     0.0000000000
  8     -2.5447193340    -2.3498067200    -0.4112239560
  8     -4.8979285800    -3.7838437580    -0.4112239560
  8     -4.9632370410    -1.0288872020    -0.4112239560
  8    -11.5779428990    -5.8039123210    -3.8220896950
  8     -7.5079563750    -1.3963311980    -3.8220896950
  8     -5.7258706360    -7.1248318390    -3.8220896950
  8    -13.9964606050    -7.2002435180    -6.4105075210
  8    -11.6432513590    -5.7662064800    -6.4105075210
  8    -11.5779428980    -8.5211630360    -6.4105075210
  8     -4.9632370400    -3.7461379170    -2.9996417820
  8     -9.0332235640    -8.1537190400    -2.9996417820
  8    -10.8153093030    -2.4252183990    -2.9996417820
  8     -7.4154427650    -5.9116989350    -4.9987940780
  8     -9.6825524310    -4.9472670680    -4.9987940780
  8     -7.7137747120    -3.4661093530    -4.9987940780
  8     -4.6921102430    -5.8536219130    -1.5879283390
  8    -10.9939224930    -7.3347796280    -1.5879283390
  8     -9.1257371740    -1.1366738160    -1.5879283390
  8     -9.1257371740    -3.6383513030    -1.8229374000
  8     -6.8586275080    -4.6027831700    -1.8229374000
  8     -8.8274052270    -6.0839408850    -1.8229374000
  8    -11.8490696970    -3.6964283250    -5.2338031390
  8     -5.5472574470    -2.2152706100    -5.2338031390
  8     -7.4154427650    -8.4133764220    -5.2338031390
 15    -10.0122657010    -2.3875125600    -1.7054328690
 15     -5.3321046120    -4.4604466740    -1.7054328690
 15     -9.4673995960    -7.4771161240    -1.7054328690
 15    -11.2090753280    -5.0896035640    -5.1162986080
 15     -7.0737803430    -2.0729341140    -5.1162986080
 15     -6.5289142390    -7.1625376780    -5.1162986080
 RECIP-PRIMVEC
    0.0000000000   -0.1396153214    0.0488634498

   -0.1209103587    0.0698076607    0.0488634498

   -0.0000000000    0.0000000000   -0.1465903493

 RECIP-CONVVEC
    0.0000000000   -0.1396153214    0.0488634498

   -0.1209103587    0.0698076607    0.0488634498

   -0.0000000000    0.0000000000   -0.1465903493

 WIGNER-SEITZ-PRIMCELL
           4
  0.4135295E+01 -0.2387511E+01  0.3410864E+01   0.1000000E+01  0.0000000E+00  0.0000000E+00
  0.4135295E+01 -0.2387511E+01 -0.1739672E+01   0.1000000E+01  0.0000000E+00  0.0000000E+00
  0.4135295E+01  0.2387511E+01 -0.3410864E+01   0.1000000E+01  0.0000000E+00  0.0000000E+00
  0.4135295E+01  0.2387511E+01  0.1739672E+01   0.1000000E+01  0.0000000E+00  0.0000000E+00
           6
  0.4135293E+01 -0.2387513E+01  0.3410866E+01   0.4966201E+00  0.2867236E+00  0.8192424E+00
  0.4135295E+01 -0.2387511E+01  0.3410864E+01   0.4966201E+00  0.2867236E+00  0.8192424E+00
  0.4135295E+01  0.2387511E+01  0.1739672E+01   0.4966201E+00  0.2867236E+00  0.8192424E+00
  0.1927948E-05  0.4775025E+01  0.3410866E+01   0.4966201E+00  0.2867236E+00  0.8192424E+00
  0.5626550E-15  0.4775024E+01  0.3410867E+01   0.4966201E+00  0.2867236E+00  0.8192424E+00
 -0.5626550E-15  0.1114102E-05  0.5082060E+01   0.4966201E+00  0.2867236E+00  0.8192424E+00
           6
  0.1927948E-05  0.4775025E+01  0.3410866E+01   0.5000002E+00  0.8660253E+00  0.0000000E+00
  0.4135295E+01  0.2387511E+01  0.1739672E+01   0.5000002E+00  0.8660253E+00  0.0000000E+00
  0.4135295E+01  0.2387511E+01 -0.3410864E+01   0.5000002E+00  0.8660253E+00  0.0000000E+00
  0.4135293E+01  0.2387513E+01 -0.3410866E+01   0.5000002E+00  0.8660253E+00  0.0000000E+00
 -0.5626550E-15  0.4775026E+01 -0.1739672E+01   0.5000002E+00  0.8660253E+00  0.0000000E+00
 -0.5626550E-15  0.4775026E+01  0.3410864E+01   0.5000002E+00  0.8660253E+00  0.0000000E+00
           6
 -0.5626550E-15 -0.4775026E+01  0.1739672E+01   0.5000002E+00 -0.8660253E+00 -0.0000000E+00
 -0.5626550E-15 -0.4775026E+01 -0.3410864E+01   0.5000002E+00 -0.8660253E+00 -0.0000000E+00
  0.1927948E-05 -0.4775025E+01 -0.3410866E+01   0.5000002E+00 -0.8660253E+00 -0.0000000E+00
  0.4135295E+01 -0.2387511E+01 -0.1739672E+01   0.5000002E+00 -0.8660253E+00 -0.0000000E+00
  0.4135295E+01 -0.2387511E+01  0.3410864E+01   0.5000002E+00 -0.8660253E+00 -0.0000000E+00
  0.4135293E+01 -0.2387513E+01  0.3410866E+01   0.5000002E+00 -0.8660253E+00 -0.0000000E+00
           6
  0.4135295E+01  0.2387511E+01 -0.3410864E+01   0.4966201E+00 -0.2867236E+00 -0.8192424E+00
  0.4135295E+01 -0.2387511E+01 -0.1739672E+01   0.4966201E+00 -0.2867236E+00 -0.8192424E+00
  0.1927948E-05 -0.4775025E+01 -0.3410866E+01   0.4966201E+00 -0.2867236E+00 -0.8192424E+00
  0.5626550E-15 -0.4775024E+01 -0.3410867E+01   0.4966201E+00 -0.2867236E+00 -0.8192424E+00
 -0.5626550E-15 -0.1114102E-05 -0.5082060E+01   0.4966201E+00 -0.2867236E+00 -0.8192424E+00
  0.4135293E+01  0.2387513E+01 -0.3410866E+01   0.4966201E+00 -0.2867236E+00 -0.8192424E+00
           6
 -0.1927948E-05  0.4775025E+01  0.3410866E+01  -0.4966201E+00  0.2867236E+00  0.8192424E+00
 -0.4135295E+01  0.2387511E+01  0.1739672E+01  -0.4966201E+00  0.2867236E+00  0.8192424E+00
 -0.4135295E+01 -0.2387511E+01  0.3410864E+01  -0.4966201E+00  0.2867236E+00  0.8192424E+00
 -0.4135293E+01 -0.2387513E+01  0.3410866E+01  -0.4966201E+00  0.2867236E+00  0.8192424E+00
 -0.5626550E-15  0.1114102E-05  0.5082060E+01  -0.4966201E+00  0.2867236E+00  0.8192424E+00
  0.5626550E-15  0.4775024E+01  0.3410867E+01  -0.4966201E+00  0.2867236E+00  0.8192424E+00
           4
 -0.5626550E-15  0.1114102E-05  0.5082060E+01   0.1473976E-15 -0.5734473E+00  0.8192425E+00
 -0.4135293E+01 -0.2387513E+01  0.3410866E+01   0.1473976E-15 -0.5734473E+00  0.8192425E+00
 -0.5626550E-15 -0.4775026E+01  0.1739672E+01   0.1473976E-15 -0.5734473E+00  0.8192425E+00
  0.4135293E+01 -0.2387513E+01  0.3410866E+01   0.1473976E-15 -0.5734473E+00  0.8192425E+00
           6
 -0.1927948E-05  0.4775025E+01  0.3410866E+01  -0.5000002E+00  0.8660253E+00 -0.1477451E-15
 -0.5626550E-15  0.4775026E+01  0.3410864E+01  -0.5000002E+00  0.8660253E+00 -0.1477451E-15
 -0.5626550E-15  0.4775026E+01 -0.1739672E+01  -0.5000002E+00  0.8660253E+00 -0.1477451E-15
 -0.4135293E+01  0.2387513E+01 -0.3410866E+01  -0.5000002E+00  0.8660253E+00 -0.1477451E-15
 -0.4135295E+01  0.2387511E+01 -0.3410864E+01  -0.5000002E+00  0.8660253E+00 -0.1477451E-15
 -0.4135295E+01  0.2387511E+01  0.1739672E+01  -0.5000002E+00  0.8660253E+00 -0.1477451E-15
           4
  0.4135293E+01  0.2387513E+01 -0.3410866E+01   0.1473976E-15  0.5734473E+00 -0.8192425E+00
 -0.5626550E-15 -0.1114102E-05 -0.5082060E+01   0.1473976E-15  0.5734473E+00 -0.8192425E+00
 -0.4135293E+01  0.2387513E+01 -0.3410866E+01   0.1473976E-15  0.5734473E+00 -0.8192425E+00
 -0.5626550E-15  0.4775026E+01 -0.1739672E+01   0.1473976E-15  0.5734473E+00 -0.8192425E+00
           6
 -0.4135295E+01 -0.2387511E+01 -0.1739672E+01  -0.5000002E+00 -0.8660253E+00 -0.1165333E-09
 -0.1927948E-05 -0.4775025E+01 -0.3410866E+01  -0.5000002E+00 -0.8660253E+00 -0.1165333E-09
 -0.5626550E-15 -0.4775026E+01 -0.3410864E+01  -0.5000002E+00 -0.8660253E+00 -0.1165333E-09
 -0.5626550E-15 -0.4775026E+01  0.1739672E+01  -0.5000002E+00 -0.8660253E+00 -0.1165333E-09
 -0.4135293E+01 -0.2387513E+01  0.3410866E+01  -0.5000002E+00 -0.8660253E+00 -0.1165333E-09
 -0.4135295E+01 -0.2387511E+01  0.3410864E+01  -0.5000002E+00 -0.8660253E+00 -0.1165333E-09
           6
 -0.4135295E+01 -0.2387511E+01 -0.1739672E+01  -0.4966201E+00 -0.2867236E+00 -0.8192424E+00
 -0.4135295E+01  0.2387511E+01 -0.3410864E+01  -0.4966201E+00 -0.2867236E+00 -0.8192424E+00
 -0.4135293E+01  0.2387513E+01 -0.3410866E+01  -0.4966201E+00 -0.2867236E+00 -0.8192424E+00
 -0.5626550E-15 -0.1114102E-05 -0.5082060E+01  -0.4966201E+00 -0.2867236E+00 -0.8192424E+00
  0.5626550E-15 -0.4775024E+01 -0.3410867E+01  -0.4966201E+00 -0.2867236E+00 -0.8192424E+00
 -0.1927948E-05 -0.4775025E+01 -0.3410866E+01  -0.4966201E+00 -0.2867236E+00 -0.8192424E+00
           4
 -0.4135295E+01  0.2387511E+01  0.1739672E+01  -0.1000000E+01 -0.0000000E+00 -0.0000000E+00
 -0.4135295E+01  0.2387511E+01 -0.3410864E+01  -0.1000000E+01 -0.0000000E+00 -0.0000000E+00
 -0.4135295E+01 -0.2387511E+01 -0.1739672E+01  -0.1000000E+01 -0.0000000E+00 -0.0000000E+00
 -0.4135295E+01 -0.2387511E+01  0.3410864E+01  -0.1000000E+01 -0.0000000E+00 -0.0000000E+00
 WIGNER-SEITZ-PRIMCELL_END
 WIGNER-SEITZ-CONVCELL
           4
  0.4135295E+01 -0.2387511E+01  0.3410864E+01   0.1000000E+01  0.0000000E+00  0.0000000E+00
  0.4135295E+01 -0.2387511E+01 -0.1739672E+01   0.1000000E+01  0.0000000E+00  0.0000000E+00
  0.4135295E+01  0.2387511E+01 -0.3410864E+01   0.1000000E+01  0.0000000E+00  0.0000000E+00
  0.4135295E+01  0.2387511E+01  0.1739672E+01   0.1000000E+01  0.0000000E+00  0.0000000E+00
           6
  0.4135293E+01 -0.2387513E+01  0.3410866E+01   0.4966201E+00  0.2867236E+00  0.8192424E+00
  0.4135295E+01 -0.2387511E+01  0.3410864E+01   0.4966201E+00  0.2867236E+00  0.8192424E+00
  0.4135295E+01  0.2387511E+01  0.1739672E+01   0.4966201E+00  0.2867236E+00  0.8192424E+00
  0.1927948E-05  0.4775025E+01  0.3410866E+01   0.4966201E+00  0.2867236E+00  0.8192424E+00
  0.5626550E-15  0.4775024E+01  0.3410867E+01   0.4966201E+00  0.2867236E+00  0.8192424E+00
 -0.5626550E-15  0.1114102E-05  0.5082060E+01   0.4966201E+00  0.2867236E+00  0.8192424E+00
           6
  0.1927948E-05  0.4775025E+01  0.3410866E+01   0.5000002E+00  0.8660253E+00  0.0000000E+00
  0.4135295E+01  0.2387511E+01  0.1739672E+01   0.5000002E+00  0.8660253E+00  0.0000000E+00
  0.4135295E+01  0.2387511E+01 -0.3410864E+01   0.5000002E+00  0.8660253E+00  0.0000000E+00
  0.4135293E+01  0.2387513E+01 -0.3410866E+01   0.5000002E+00  0.8660253E+00  0.0000000E+00
 -0.5626550E-15  0.4775026E+01 -0.1739672E+01   0.5000002E+00  0.8660253E+00  0.0000000E+00
 -0.5626550E-15  0.4775026E+01  0.3410864E+01   0.5000002E+00  0.8660253E+00  0.0000000E+00
           6
 -0.5626550E-15 -0.4775026E+01  0.1739672E+01   0.5000002E+00 -0.8660253E+00 -0.0000000E+00
 -0.5626550E-15 -0.4775026E+01 -0.3410864E+01   0.5000002E+00 -0.8660253E+00 -0.0000000E+00
  0.1927948E-05 -0.4775025E+01 -0.3410866E+01   0.5000002E+00 -0.8660253E+00 -0.0000000E+00
  0.4135295E+01 -0.2387511E+01 -0.1739672E+01   0.5000002E+00 -0.8660253E+00 -0.0000000E+00
  0.4135295E+01 -0.2387511E+01  0.3410864E+01   0.5000002E+00 -0.8660253E+00 -0.0000000E+00
  0.4135293E+01 -0.2387513E+01  0.3410866E+01   0.5000002E+00 -0.8660253E+00 -0.0000000E+00
           6
  0.4135295E+01  0.2387511E+01 -0.3410864E+01   0.4966201E+00 -0.2867236E+00 -0.8192424E+00
  0.4135295E+01 -0.2387511E+01 -0.1739672E+01   0.4966201E+00 -0.2867236E+00 -0.8192424E+00
  0.1927948E-05 -0.4775025E+01 -0.3410866E+01   0.4966201E+00 -0.2867236E+00 -0.8192424E+00
  0.5626550E-15 -0.4775024E+01 -0.3410867E+01   0.4966201E+00 -0.2867236E+00 -0.8192424E+00
 -0.5626550E-15 -0.1114102E-05 -0.5082060E+01   0.4966201E+00 -0.2867236E+00 -0.8192424E+00
  0.4135293E+01  0.2387513E+01 -0.3410866E+01   0.4966201E+00 -0.2867236E+00 -0.8192424E+00
           6
 -0.1927948E-05  0.4775025E+01  0.3410866E+01  -0.4966201E+00  0.2867236E+00  0.8192424E+00
 -0.4135295E+01  0.2387511E+01  0.1739672E+01  -0.4966201E+00  0.2867236E+00  0.8192424E+00
 -0.4135295E+01 -0.2387511E+01  0.3410864E+01  -0.4966201E+00  0.2867236E+00  0.8192424E+00
 -0.4135293E+01 -0.2387513E+01  0.3410866E+01  -0.4966201E+00  0.2867236E+00  0.8192424E+00
 -0.5626550E-15  0.1114102E-05  0.5082060E+01  -0.4966201E+00  0.2867236E+00  0.8192424E+00
  0.5626550E-15  0.4775024E+01  0.3410867E+01  -0.4966201E+00  0.2867236E+00  0.8192424E+00
           4
 -0.5626550E-15  0.1114102E-05  0.5082060E+01   0.1473976E-15 -0.5734473E+00  0.8192425E+00
 -0.4135293E+01 -0.2387513E+01  0.3410866E+01   0.1473976E-15 -0.5734473E+00  0.8192425E+00
 -0.5626550E-15 -0.4775026E+01  0.1739672E+01   0.1473976E-15 -0.5734473E+00  0.8192425E+00
  0.4135293E+01 -0.2387513E+01  0.3410866E+01   0.1473976E-15 -0.5734473E+00  0.8192425E+00
           6
 -0.1927948E-05  0.4775025E+01  0.3410866E+01  -0.5000002E+00  0.8660253E+00 -0.1477451E-15
 -0.5626550E-15  0.4775026E+01  0.3410864E+01  -0.5000002E+00  0.8660253E+00 -0.1477451E-15
 -0.5626550E-15  0.4775026E+01 -0.1739672E+01  -0.5000002E+00  0.8660253E+00 -0.1477451E-15
 -0.4135293E+01  0.2387513E+01 -0.3410866E+01  -0.5000002E+00  0.8660253E+00 -0.1477451E-15
 -0.4135295E+01  0.2387511E+01 -0.3410864E+01  -0.5000002E+00  0.8660253E+00 -0.1477451E-15
 -0.4135295E+01  0.2387511E+01  0.1739672E+01  -0.5000002E+00  0.8660253E+00 -0.1477451E-15
           4
  0.4135293E+01  0.2387513E+01 -0.3410866E+01   0.1473976E-15  0.5734473E+00 -0.8192425E+00
 -0.5626550E-15 -0.1114102E-05 -0.5082060E+01   0.1473976E-15  0.5734473E+00 -0.8192425E+00
 -0.4135293E+01  0.2387513E+01 -0.3410866E+01   0.1473976E-15  0.5734473E+00 -0.8192425E+00
 -0.5626550E-15  0.4775026E+01 -0.1739672E+01   0.1473976E-15  0.5734473E+00 -0.8192425E+00
           6
 -0.4135295E+01 -0.2387511E+01 -0.1739672E+01  -0.5000002E+00 -0.8660253E+00 -0.1165333E-09
 -0.1927948E-05 -0.4775025E+01 -0.3410866E+01  -0.5000002E+00 -0.8660253E+00 -0.1165333E-09
 -0.5626550E-15 -0.4775026E+01 -0.3410864E+01  -0.5000002E+00 -0.8660253E+00 -0.1165333E-09
 -0.5626550E-15 -0.4775026E+01  0.1739672E+01  -0.5000002E+00 -0.8660253E+00 -0.1165333E-09
 -0.4135293E+01 -0.2387513E+01  0.3410866E+01  -0.5000002E+00 -0.8660253E+00 -0.1165333E-09
 -0.4135295E+01 -0.2387511E+01  0.3410864E+01  -0.5000002E+00 -0.8660253E+00 -0.1165333E-09
           6
 -0.4135295E+01 -0.2387511E+01 -0.1739672E+01  -0.4966201E+00 -0.2867236E+00 -0.8192424E+00
 -0.4135295E+01  0.2387511E+01 -0.3410864E+01  -0.4966201E+00 -0.2867236E+00 -0.8192424E+00
 -0.4135293E+01  0.2387513E+01 -0.3410866E+01  -0.4966201E+00 -0.2867236E+00 -0.8192424E+00
 -0.5626550E-15 -0.1114102E-05 -0.5082060E+01  -0.4966201E+00 -0.2867236E+00 -0.8192424E+00
  0.5626550E-15 -0.4775024E+01 -0.3410867E+01  -0.4966201E+00 -0.2867236E+00 -0.8192424E+00
 -0.1927948E-05 -0.4775025E+01 -0.3410866E+01  -0.4966201E+00 -0.2867236E+00 -0.8192424E+00
           4
 -0.4135295E+01  0.2387511E+01  0.1739672E+01  -0.1000000E+01 -0.0000000E+00 -0.0000000E+00
 -0.4135295E+01  0.2387511E+01 -0.3410864E+01  -0.1000000E+01 -0.0000000E+00 -0.0000000E+00
 -0.4135295E+01 -0.2387511E+01 -0.1739672E+01  -0.1000000E+01 -0.0000000E+00 -0.0000000E+00
 -0.4135295E+01 -0.2387511E+01  0.3410864E+01  -0.1000000E+01 -0.0000000E+00 -0.0000000E+00
 WIGNER-SEITZ-CONVCELL_END
 BRILLOUIN-ZONE-PRIMCELL
           6
  0.9048051E-01 -0.1710154E-01  0.2443172E-01   0.8174087E+00  0.4719313E+00  0.3303390E+00
  0.9048051E-01  0.1710154E-01 -0.2443172E-01   0.8174087E+00  0.4719313E+00  0.3303390E+00
  0.6005060E-01  0.6980766E-01 -0.2443172E-01   0.8174087E+00  0.4719313E+00  0.3303390E+00
  0.3042985E-01  0.8690920E-01  0.2443172E-01   0.8174087E+00  0.4719313E+00  0.3303390E+00
  0.3042985E-01  0.5270612E-01  0.7329517E-01   0.8174087E+00  0.4719313E+00  0.3303390E+00
  0.6085976E-01 -0.2190677E-16  0.7329517E-01   0.8174087E+00  0.4719313E+00  0.3303390E+00
           4
  0.6005060E-01  0.6980766E-01 -0.2443172E-01   0.7094846E+00  0.4096213E+00 -0.5734474E+00
  0.9048051E-01  0.1710154E-01 -0.2443172E-01   0.7094846E+00  0.4096213E+00 -0.5734474E+00
  0.6085976E-01  0.0000000E+00 -0.7329517E-01   0.7094846E+00  0.4096213E+00 -0.5734474E+00
  0.3042985E-01  0.5270612E-01 -0.7329517E-01   0.7094846E+00  0.4096213E+00 -0.5734474E+00
           6
  0.6005060E-01  0.6980766E-01 -0.2443172E-01  -0.0000000E+00  0.9438624E+00 -0.3303389E+00
  0.3042985E-01  0.5270612E-01 -0.7329517E-01  -0.0000000E+00  0.9438624E+00 -0.3303389E+00
 -0.3042985E-01  0.5270612E-01 -0.7329517E-01  -0.0000000E+00  0.9438624E+00 -0.3303389E+00
 -0.6005060E-01  0.6980766E-01 -0.2443172E-01  -0.0000000E+00  0.9438624E+00 -0.3303389E+00
 -0.3042985E-01  0.8690920E-01  0.2443172E-01  -0.0000000E+00  0.9438624E+00 -0.3303389E+00
  0.3042985E-01  0.8690920E-01  0.2443172E-01  -0.0000000E+00  0.9438624E+00 -0.3303389E+00
           6
  0.9048051E-01 -0.1710154E-01  0.2443172E-01   0.8174087E+00 -0.4719313E+00 -0.3303390E+00
  0.6005060E-01 -0.6980766E-01  0.2443172E-01   0.8174087E+00 -0.4719313E+00 -0.3303390E+00
  0.3042985E-01 -0.8690920E-01 -0.2443172E-01   0.8174087E+00 -0.4719313E+00 -0.3303390E+00
  0.3042985E-01 -0.5270612E-01 -0.7329517E-01   0.8174087E+00 -0.4719313E+00 -0.3303390E+00
  0.6085976E-01  0.0000000E+00 -0.7329517E-01   0.8174087E+00 -0.4719313E+00 -0.3303390E+00
  0.9048051E-01  0.1710154E-01 -0.2443172E-01   0.8174087E+00 -0.4719313E+00 -0.3303390E+00
           4
  0.3042985E-01  0.5270612E-01  0.7329517E-01  -0.0000000E+00  0.8192425E+00  0.5734473E+00
  0.3042985E-01  0.8690920E-01  0.2443172E-01  -0.0000000E+00  0.8192425E+00  0.5734473E+00
 -0.3042985E-01  0.8690920E-01  0.2443172E-01  -0.0000000E+00  0.8192425E+00  0.5734473E+00
 -0.3042985E-01  0.5270612E-01  0.7329517E-01  -0.0000000E+00  0.8192425E+00  0.5734473E+00
           6
  0.3042985E-01 -0.5270612E-01  0.7329517E-01   0.1352006E-15 -0.1352006E-15  0.1000000E+01
  0.6085976E-01 -0.2190677E-16  0.7329517E-01   0.1352006E-15 -0.1352006E-15  0.1000000E+01
  0.3042985E-01  0.5270612E-01  0.7329517E-01   0.1352006E-15 -0.1352006E-15  0.1000000E+01
 -0.3042985E-01  0.5270612E-01  0.7329517E-01   0.1352006E-15 -0.1352006E-15  0.1000000E+01
 -0.6085976E-01 -0.2190677E-16  0.7329517E-01   0.1352006E-15 -0.1352006E-15  0.1000000E+01
 -0.3042985E-01 -0.5270612E-01  0.7329517E-01   0.1352006E-15 -0.1352006E-15  0.1000000E+01
           4
  0.6085976E-01 -0.2190677E-16  0.7329517E-01   0.7094846E+00 -0.4096213E+00  0.5734474E+00
  0.3042985E-01 -0.5270612E-01  0.7329517E-01   0.7094846E+00 -0.4096213E+00  0.5734474E+00
  0.6005060E-01 -0.6980766E-01  0.2443172E-01   0.7094846E+00 -0.4096213E+00  0.5734474E+00
  0.9048051E-01 -0.1710154E-01  0.2443172E-01   0.7094846E+00 -0.4096213E+00  0.5734474E+00
           6
 -0.3042985E-01 -0.5270612E-01 -0.7329517E-01   0.2704012E-15 -0.1352006E-15 -0.1000000E+01
 -0.6085976E-01  0.1095338E-16 -0.7329517E-01   0.2704012E-15 -0.1352006E-15 -0.1000000E+01
 -0.3042985E-01  0.5270612E-01 -0.7329517E-01   0.2704012E-15 -0.1352006E-15 -0.1000000E+01
  0.3042985E-01  0.5270612E-01 -0.7329517E-01   0.2704012E-15 -0.1352006E-15 -0.1000000E+01
  0.6085976E-01  0.0000000E+00 -0.7329517E-01   0.2704012E-15 -0.1352006E-15 -0.1000000E+01
  0.3042985E-01 -0.5270612E-01 -0.7329517E-01   0.2704012E-15 -0.1352006E-15 -0.1000000E+01
           6
 -0.3042985E-01  0.8690920E-01  0.2443172E-01  -0.8174087E+00  0.4719313E+00  0.3303390E+00
 -0.6005060E-01  0.6980766E-01 -0.2443172E-01  -0.8174087E+00  0.4719313E+00  0.3303390E+00
 -0.9048051E-01  0.1710154E-01 -0.2443172E-01  -0.8174087E+00  0.4719313E+00  0.3303390E+00
 -0.9048051E-01 -0.1710154E-01  0.2443172E-01  -0.8174087E+00  0.4719313E+00  0.3303390E+00
 -0.6085976E-01 -0.2190677E-16  0.7329517E-01  -0.8174087E+00  0.4719313E+00  0.3303390E+00
 -0.3042985E-01  0.5270612E-01  0.7329517E-01  -0.8174087E+00  0.4719313E+00  0.3303390E+00
           4
 -0.3042985E-01  0.5270612E-01 -0.7329517E-01  -0.7094846E+00  0.4096213E+00 -0.5734474E+00
 -0.6085976E-01  0.1095338E-16 -0.7329517E-01  -0.7094846E+00  0.4096213E+00 -0.5734474E+00
 -0.9048051E-01  0.1710154E-01 -0.2443172E-01  -0.7094846E+00  0.4096213E+00 -0.5734474E+00
 -0.6005060E-01  0.6980766E-01 -0.2443172E-01  -0.7094846E+00  0.4096213E+00 -0.5734474E+00
           6
  0.3042985E-01 -0.5270612E-01  0.7329517E-01   0.0000000E+00 -0.9438624E+00  0.3303389E+00
 -0.3042985E-01 -0.5270612E-01  0.7329517E-01   0.0000000E+00 -0.9438624E+00  0.3303389E+00
 -0.6005060E-01 -0.6980766E-01  0.2443172E-01   0.0000000E+00 -0.9438624E+00  0.3303389E+00
 -0.3042985E-01 -0.8690920E-01 -0.2443172E-01   0.0000000E+00 -0.9438624E+00  0.3303389E+00
  0.3042985E-01 -0.8690920E-01 -0.2443172E-01   0.0000000E+00 -0.9438624E+00  0.3303389E+00
  0.6005060E-01 -0.6980766E-01  0.2443172E-01   0.0000000E+00 -0.9438624E+00  0.3303389E+00
           4
  0.3042985E-01 -0.8690920E-01 -0.2443172E-01   0.0000000E+00 -0.8192425E+00 -0.5734473E+00
 -0.3042985E-01 -0.8690920E-01 -0.2443172E-01   0.0000000E+00 -0.8192425E+00 -0.5734473E+00
 -0.3042985E-01 -0.5270612E-01 -0.7329517E-01   0.0000000E+00 -0.8192425E+00 -0.5734473E+00
  0.3042985E-01 -0.5270612E-01 -0.7329517E-01   0.0000000E+00 -0.8192425E+00 -0.5734473E+00
           4
 -0.9048051E-01 -0.1710154E-01  0.2443172E-01  -0.7094846E+00 -0.4096213E+00  0.5734474E+00
 -0.6005060E-01 -0.6980766E-01  0.2443172E-01  -0.7094846E+00 -0.4096213E+00  0.5734474E+00
 -0.3042985E-01 -0.5270612E-01  0.7329517E-01  -0.7094846E+00 -0.4096213E+00  0.5734474E+00
 -0.6085976E-01 -0.2190677E-16  0.7329517E-01  -0.7094846E+00 -0.4096213E+00  0.5734474E+00
           6
 -0.6005060E-01 -0.6980766E-01  0.2443172E-01  -0.8174087E+00 -0.4719313E+00 -0.3303390E+00
 -0.9048051E-01 -0.1710154E-01  0.2443172E-01  -0.8174087E+00 -0.4719313E+00 -0.3303390E+00
 -0.9048051E-01  0.1710154E-01 -0.2443172E-01  -0.8174087E+00 -0.4719313E+00 -0.3303390E+00
 -0.6085976E-01  0.1095338E-16 -0.7329517E-01  -0.8174087E+00 -0.4719313E+00 -0.3303390E+00
 -0.3042985E-01 -0.5270612E-01 -0.7329517E-01  -0.8174087E+00 -0.4719313E+00 -0.3303390E+00
 -0.3042985E-01 -0.8690920E-01 -0.2443172E-01  -0.8174087E+00 -0.4719313E+00 -0.3303390E+00
 BRILLOUIN-ZONE-PRIMCELL_END
 BRILLOUIN-ZONE-CONVCELL
           6
  0.9048051E-01 -0.1710154E-01  0.2443172E-01   0.8174087E+00  0.4719313E+00  0.3303390E+00
  0.9048051E-01  0.1710154E-01 -0.2443172E-01   0.8174087E+00  0.4719313E+00  0.3303390E+00
  0.6005060E-01  0.6980766E-01 -0.2443172E-01   0.8174087E+00  0.4719313E+00  0.3303390E+00
  0.3042985E-01  0.8690920E-01  0.2443172E-01   0.8174087E+00  0.4719313E+00  0.3303390E+00
  0.3042985E-01  0.5270612E-01  0.7329517E-01   0.8174087E+00  0.4719313E+00  0.3303390E+00
  0.6085976E-01 -0.2190677E-16  0.7329517E-01   0.8174087E+00  0.4719313E+00  0.3303390E+00
           4
  0.6005060E-01  0.6980766E-01 -0.2443172E-01   0.7094846E+00  0.4096213E+00 -0.5734474E+00
  0.9048051E-01  0.1710154E-01 -0.2443172E-01   0.7094846E+00  0.4096213E+00 -0.5734474E+00
  0.6085976E-01  0.0000000E+00 -0.7329517E-01   0.7094846E+00  0.4096213E+00 -0.5734474E+00
  0.3042985E-01  0.5270612E-01 -0.7329517E-01   0.7094846E+00  0.4096213E+00 -0.5734474E+00
           6
  0.6005060E-01  0.6980766E-01 -0.2443172E-01  -0.0000000E+00  0.9438624E+00 -0.3303389E+00
  0.3042985E-01  0.5270612E-01 -0.7329517E-01  -0.0000000E+00  0.9438624E+00 -0.3303389E+00
 -0.3042985E-01  0.5270612E-01 -0.7329517E-01  -0.0000000E+00  0.9438624E+00 -0.3303389E+00
 -0.6005060E-01  0.6980766E-01 -0.2443172E-01  -0.0000000E+00  0.9438624E+00 -0.3303389E+00
 -0.3042985E-01  0.8690920E-01  0.2443172E-01  -0.0000000E+00  0.9438624E+00 -0.3303389E+00
  0.3042985E-01  0.8690920E-01  0.2443172E-01  -0.0000000E+00  0.9438624E+00 -0.3303389E+00
           6
  0.9048051E-01 -0.1710154E-01  0.2443172E-01   0.8174087E+00 -0.4719313E+00 -0.3303390E+00
  0.6005060E-01 -0.6980766E-01  0.2443172E-01   0.8174087E+00 -0.4719313E+00 -0.3303390E+00
  0.3042985E-01 -0.8690920E-01 -0.2443172E-01   0.8174087E+00 -0.4719313E+00 -0.3303390E+00
  0.3042985E-01 -0.5270612E-01 -0.7329517E-01   0.8174087E+00 -0.4719313E+00 -0.3303390E+00
  0.6085976E-01  0.0000000E+00 -0.7329517E-01   0.8174087E+00 -0.4719313E+00 -0.3303390E+00
  0.9048051E-01  0.1710154E-01 -0.2443172E-01   0.8174087E+00 -0.4719313E+00 -0.3303390E+00
           4
  0.3042985E-01  0.5270612E-01  0.7329517E-01  -0.0000000E+00  0.8192425E+00  0.5734473E+00
  0.3042985E-01  0.8690920E-01  0.2443172E-01  -0.0000000E+00  0.8192425E+00  0.5734473E+00
 -0.3042985E-01  0.8690920E-01  0.2443172E-01  -0.0000000E+00  0.8192425E+00  0.5734473E+00
 -0.3042985E-01  0.5270612E-01  0.7329517E-01  -0.0000000E+00  0.8192425E+00  0.5734473E+00
           6
  0.3042985E-01 -0.5270612E-01  0.7329517E-01   0.1352006E-15 -0.1352006E-15  0.1000000E+01
  0.6085976E-01 -0.2190677E-16  0.7329517E-01   0.1352006E-15 -0.1352006E-15  0.1000000E+01
  0.3042985E-01  0.5270612E-01  0.7329517E-01   0.1352006E-15 -0.1352006E-15  0.1000000E+01
 -0.3042985E-01  0.5270612E-01  0.7329517E-01   0.1352006E-15 -0.1352006E-15  0.1000000E+01
 -0.6085976E-01 -0.2190677E-16  0.7329517E-01   0.1352006E-15 -0.1352006E-15  0.1000000E+01
 -0.3042985E-01 -0.5270612E-01  0.7329517E-01   0.1352006E-15 -0.1352006E-15  0.1000000E+01
           4
  0.6085976E-01 -0.2190677E-16  0.7329517E-01   0.7094846E+00 -0.4096213E+00  0.5734474E+00
  0.3042985E-01 -0.5270612E-01  0.7329517E-01   0.7094846E+00 -0.4096213E+00  0.5734474E+00
  0.6005060E-01 -0.6980766E-01  0.2443172E-01   0.7094846E+00 -0.4096213E+00  0.5734474E+00
  0.9048051E-01 -0.1710154E-01  0.2443172E-01   0.7094846E+00 -0.4096213E+00  0.5734474E+00
           6
 -0.3042985E-01 -0.5270612E-01 -0.7329517E-01   0.2704012E-15 -0.1352006E-15 -0.1000000E+01
 -0.6085976E-01  0.1095338E-16 -0.7329517E-01   0.2704012E-15 -0.1352006E-15 -0.1000000E+01
 -0.3042985E-01  0.5270612E-01 -0.7329517E-01   0.2704012E-15 -0.1352006E-15 -0.1000000E+01
  0.3042985E-01  0.5270612E-01 -0.7329517E-01   0.2704012E-15 -0.1352006E-15 -0.1000000E+01
  0.6085976E-01  0.0000000E+00 -0.7329517E-01   0.2704012E-15 -0.1352006E-15 -0.1000000E+01
  0.3042985E-01 -0.5270612E-01 -0.7329517E-01   0.2704012E-15 -0.1352006E-15 -0.1000000E+01
           6
 -0.3042985E-01  0.8690920E-01  0.2443172E-01  -0.8174087E+00  0.4719313E+00  0.3303390E+00
 -0.6005060E-01  0.6980766E-01 -0.2443172E-01  -0.8174087E+00  0.4719313E+00  0.3303390E+00