(written by ASE)

1024 atoms
3 atom types

0.0      20.921129209752308  xlo xhi
0.0      20.921129209752316  ylo yhi
0.0      25.315072805266905  zlo zhi

Masses

     1      26.981538493059151 # Al
     2      6.9399999982147245 # Li
     3      15.998999995884349 # O

Atoms # atomic

     1   2      1.6436652598539285      3.5866170425841504      4.7465761509875461
     2   2      3.5866170425841504      1.6436652598539279      1.5821920503291809
     3   2     0.97147589136511014      0.9714758913651097      3.1643841006583617
     4   2      4.2588064110729658      4.2588064110729684                       0
     5   1      3.5390722970262476      1.6912100054118315      4.7465761509875461
     6   1      1.6912100054118324      3.5390722970262458      1.5821920503291809
     7   1      4.3063511566308703      4.3063511566308703      3.1643841006583617
     8   1     0.92393114580720703     0.92393114580720537                       0
     9   3      4.3831414852931712      1.0929944305653643      6.1844280243533092
    10   3     0.84714081714490819       4.137287871872716      3.0200439236949488
    11   3      3.7081355817844037      3.4622819683639432      4.6022359740241274
    12   3      1.5221467206536761       1.768000334074131       1.437851873365767
    13   3       4.137287871872716     0.84714081714490774      3.3087242776217765
    14   3      1.0929944305653645      4.3831414852931676     0.14434017696341553
    15   3      3.4622819683639441      3.7081355817844037      1.7265322272925971
    16   3      1.7680003340741324      1.5221467206536754      4.8909163279509604
    17   2      1.6436652598539285      3.5866170425841504      11.075344352304272
    18   2      3.5866170425841504      1.6436652598539279      7.9109602516459052
    19   2     0.97147589136511014      0.9714758913651097      9.4931523019750852
    20   2      4.2588064110729658      4.2588064110729684      6.3287682013167235
    21   1      3.5390722970262476      1.6912100054118315      11.075344352304272
    22   1      1.6912100054118324      3.5390722970262458      7.9109602516459052
    23   1      4.3063511566308703      4.3063511566308703      9.4931523019750852
    24   1     0.92393114580720703     0.92393114580720537      6.3287682013167235
    25   3      4.3831414852931712      1.0929944305653643      12.513196225670033
    26   3     0.84714081714490819       4.137287871872716      9.3488121250116727
    27   3      3.7081355817844037      3.4622819683639432      10.931004175340853
    28   3      1.5221467206536761       1.768000334074131      7.7666200746824927
    29   3       4.137287871872716     0.84714081714490774      9.6374924789384995
    30   3      1.0929944305653645      4.3831414852931676      6.4731083782801395
    31   3      3.4622819683639441      3.7081355817844037      8.0553004286093195
    32   3      1.7680003340741324      1.5221467206536754      11.219684529267687
    33   2      1.6436652598539285      3.5866170425841504      17.404112553620994
    34   2      3.5866170425841504      1.6436652598539279      14.239728452962632
    35   2     0.97147589136511014      0.9714758913651097       15.82192050329181
    36   2      4.2588064110729658      4.2588064110729684      12.657536402633449
    37   1      3.5390722970262476      1.6912100054118315      17.404112553620994
    38   1      1.6912100054118324      3.5390722970262458      14.239728452962632
    39   1      4.3063511566308703      4.3063511566308703       15.82192050329181
    40   1     0.92393114580720703     0.92393114580720537      12.657536402633449
    41   3      4.3831414852931712      1.0929944305653643       18.84196442698676
    42   3     0.84714081714490819       4.137287871872716      15.677580326328398
    43   3      3.7081355817844037      3.4622819683639432      17.259772376657576
    44   3      1.5221467206536761       1.768000334074131      14.095388275999216
    45   3       4.137287871872716     0.84714081714490774      15.966260680255226
    46   3      1.0929944305653645      4.3831414852931676      12.801876579596867
    47   3      3.4622819683639441      3.7081355817844037      14.384068629926048
    48   3      1.7680003340741324      1.5221467206536754      17.548452730584408
    49   2      1.6436652598539285      3.5866170425841504      23.732880754937721
    50   2      3.5866170425841504      1.6436652598539279       20.56849665427935
    51   2     0.97147589136511014      0.9714758913651097      22.150688704608534
    52   2      4.2588064110729658      4.2588064110729684       18.98630460395017
    53   1      3.5390722970262476      1.6912100054118315      23.732880754937721
    54   1      1.6912100054118324      3.5390722970262458       20.56849665427935
    55   1      4.3063511566308703      4.3063511566308703      22.150688704608534
    56   1     0.92393114580720703     0.92393114580720537       18.98630460395017
    57   3      4.3831414852931712      1.0929944305653643       25.17073262830348
    58   3     0.84714081714490819       4.137287871872716      22.006348527645123
    59   3      3.7081355817844037      3.4622819683639432        23.5885405779743
    60   3      1.5221467206536761       1.768000334074131      20.424156477315936
    61   3       4.137287871872716     0.84714081714490774      22.295028881571952
    62   3      1.0929944305653645      4.3831414852931676      19.130644780913588
    63   3      3.4622819683639441      3.7081355817844037      20.712836831242768
    64   3      1.7680003340741324      1.5221467206536754      23.877220931901132
    65   2      1.6436652598539285      8.8168993450222288      4.7465761509875461
    66   2      3.5866170425841504       6.873947562292007      1.5821920503291809
    67   2     0.97147589136511014      6.2017581938031894      3.1643841006583617
    68   2      4.2588064110729658      9.4890887135110482                       0
    69   1      3.5390722970262476      6.9214923078499107      4.7465761509875461
    70   1      1.6912100054118324      8.7693545994643252      1.5821920503291809
    71   1      4.3063511566308703      9.5366334590689483      3.1643841006583617
    72   1     0.92393114580720703      6.1542134482452839                       0
    73   3      4.3831414852931712      6.3232767330034436      6.1844280243533092
    74   3     0.84714081714490819      9.3675701743107957      3.0200439236949488
    75   3      3.7081355817844037      8.6925642708020234      4.6022359740241274
    76   3      1.5221467206536761      6.9982826365122106       1.437851873365767
    77   3       4.137287871872716      6.0774231195829866      3.3087242776217765
    78   3      1.0929944305653645      9.6134237877312465     0.14434017696341553
    79   3      3.4622819683639441      8.9384178842224831      1.7265322272925971
    80   3      1.7680003340741324      6.7524290230917554      4.8909163279509604
    81   2      1.6436652598539285      8.8168993450222288      11.075344352304272
    82   2      3.5866170425841504       6.873947562292007      7.9109602516459052
    83   2     0.97147589136511014      6.2017581938031894      9.4931523019750852
    84   2      4.2588064110729658      9.4890887135110482      6.3287682013167235
    85   1      3.5390722970262476      6.9214923078499107      11.075344352304272
    86   1      1.6912100054118324      8.7693545994643252      7.9109602516459052
    87   1      4.3063511566308703      9.5366334590689483      9.4931523019750852
    88   1     0.92393114580720703      6.1542134482452839      6.3287682013167235
    89   3      4.3831414852931712      6.3232767330034436      12.513196225670033
    90   3     0.84714081714490819      9.3675701743107957      9.3488121250116727
    91   3      3.7081355817844037      8.6925642708020234      10.931004175340853
    92   3      1.5221467206536761      6.9982826365122106      7.7666200746824927
    93   3       4.137287871872716      6.0774231195829866      9.6374924789384995
    94   3      1.0929944305653645      9.6134237877312465      6.4731083782801395
    95   3      3.4622819683639441      8.9384178842224831      8.0553004286093195
    96   3      1.7680003340741324      6.7524290230917554      11.219684529267687
    97   2      1.6436652598539285      8.8168993450222288      17.404112553620994
    98   2      3.5866170425841504       6.873947562292007      14.239728452962632
    99   2     0.97147589136511014      6.2017581938031894       15.82192050329181
   100   2      4.2588064110729658      9.4890887135110482      12.657536402633449
   101   1      3.5390722970262476      6.9214923078499107      17.404112553620994
   102   1      1.6912100054118324      8.7693545994643252      14.239728452962632
   103   1      4.3063511566308703      9.5366334590689483       15.82192050329181
   104   1     0.92393114580720703      6.1542134482452839      12.657536402633449
   105   3      4.3831414852931712      6.3232767330034436       18.84196442698676
   106   3     0.84714081714490819      9.3675701743107957      15.677580326328398
   107   3      3.7081355817844037      8.6925642708020234      17.259772376657576
   108   3      1.5221467206536761      6.9982826365122106      14.095388275999216
   109   3       4.137287871872716      6.0774231195829866      15.966260680255226
   110   3      1.0929944305653645      9.6134237877312465      12.801876579596867
   111   3      3.4622819683639441      8.9384178842224831      14.384068629926048
   112   3      1.7680003340741324      6.7524290230917554      17.548452730584408
   113   2      1.6436652598539285      8.8168993450222288      23.732880754937721
   114   2      3.5866170425841504       6.873947562292007       20.56849665427935
   115   2     0.97147589136511014      6.2017581938031894      22.150688704608534
   116   2      4.2588064110729658      9.4890887135110482       18.98630460395017
   117   1      3.5390722970262476      6.9214923078499107      23.732880754937721
   118   1      1.6912100054118324      8.7693545994643252       20.56849665427935
   119   1      4.3063511566308703      9.5366334590689483      22.150688704608534
   120   1     0.92393114580720703      6.1542134482452839       18.98630460395017
   121   3      4.3831414852931712      6.3232767330034436       25.17073262830348
   122   3     0.84714081714490819      9.3675701743107957      22.006348527645123
   123   3      3.7081355817844037      8.6925642708020234        23.5885405779743
   124   3      1.5221467206536761      6.9982826365122106      20.424156477315936
   125   3       4.137287871872716      6.0774231195829866      22.295028881571952
   126   3      1.0929944305653645      9.6134237877312465      19.130644780913588
   127   3      3.4622819683639441      8.9384178842224831      20.712836831242768
   128   3      1.7680003340741324      6.7524290230917554      23.877220931901132
   129   2      1.6436652598539285       14.04718164746031      4.7465761509875461
   130   2      3.5866170425841504      12.104229864730085      1.5821920503291809
   131   2     0.97147589136511014      11.432040496241267      3.1643841006583617
   132   2      4.2588064110729658      14.719371015949125                       0
   133   1      3.5390722970262476       12.15177461028799      4.7465761509875461
   134   1      1.6912100054118324      13.999636901902404      1.5821920503291809
   135   1      4.3063511566308703      14.766915761507029      3.1643841006583617
   136   1     0.92393114580720703      11.384495750683364                       0
   137   3      4.3831414852931712      11.553559035441522      6.1844280243533092
   138   3     0.84714081714490819      14.597852476748875      3.0200439236949488
   139   3      3.7081355817844037      13.922846573240102      4.6022359740241274
   140   3      1.5221467206536761      12.228564938950289       1.437851873365767
   141   3       4.137287871872716      11.307705422021067      3.3087242776217765
   142   3      1.0929944305653645      14.843706090169325     0.14434017696341553
   143   3      3.4622819683639441      14.168700186660562      1.7265322272925971
   144   3      1.7680003340741324      11.982711325529833      4.8909163279509604
   145   2      1.6436652598539285       14.04718164746031      11.075344352304272
   146   2      3.5866170425841504      12.104229864730085      7.9109602516459052
   147   2     0.97147589136511014      11.432040496241267      9.4931523019750852
   148   2      4.2588064110729658      14.719371015949125      6.3287682013167235
   149   1      3.5390722970262476       12.15177461028799      11.075344352304272
   150   1      1.6912100054118324      13.999636901902404      7.9109602516459052
   151   1      4.3063511566308703      14.766915761507029      9.4931523019750852
   152   1     0.92393114580720703      11.384495750683364      6.3287682013167235
   153   3      4.3831414852931712      11.553559035441522      12.513196225670033
   154   3     0.84714081714490819      14.597852476748875      9.3488121250116727
   155   3      3.7081355817844037      13.922846573240102      10.931004175340853
   156   3      1.5221467206536761      12.228564938950289      7.7666200746824927
   157   3       4.137287871872716      11.307705422021067      9.6374924789384995
   158   3      1.0929944305653645      14.843706090169325      6.4731083782801395
   159   3      3.4622819683639441      14.168700186660562      8.0553004286093195
   160   3      1.7680003340741324      11.982711325529833      11.219684529267687
   161   2      1.6436652598539285       14.04718164746031      17.404112553620994
   162   2      3.5866170425841504      12.104229864730085      14.239728452962632
   163   2     0.97147589136511014      11.432040496241267       15.82192050329181
   164   2      4.2588064110729658      14.719371015949125      12.657536402633449
   165   1      3.5390722970262476       12.15177461028799      17.404112553620994
   166   1      1.6912100054118324      13.999636901902404      14.239728452962632
   167   1      4.3063511566308703      14.766915761507029       15.82192050329181
   168   1     0.92393114580720703      11.384495750683364      12.657536402633449
   169   3      4.3831414852931712      11.553559035441522       18.84196442698676
   170   3     0.84714081714490819      14.597852476748875      15.677580326328398
   171   3      3.7081355817844037      13.922846573240102      17.259772376657576
   172   3      1.5221467206536761      12.228564938950289      14.095388275999216
   173   3       4.137287871872716      11.307705422021067      15.966260680255226
   174   3      1.0929944305653645      14.843706090169325      12.801876579596867
   175   3      3.4622819683639441      14.168700186660562      14.384068629926048
   176   3      1.7680003340741324      11.982711325529833      17.548452730584408
   177   2      1.6436652598539285       14.04718164746031      23.732880754937721
   178   2      3.5866170425841504      12.104229864730085       20.56849665427935
   179   2     0.97147589136511014      11.432040496241267      22.150688704608534
   180   2      4.2588064110729658      14.719371015949125       18.98630460395017
   181   1      3.5390722970262476       12.15177461028799      23.732880754937721
   182   1      1.6912100054118324      13.999636901902404       20.56849665427935
   183   1      4.3063511566308703      14.766915761507029      22.150688704608534
   184   1     0.92393114580720703      11.384495750683364       18.98630460395017
   185   3      4.3831414852931712      11.553559035441522       25.17073262830348
   186   3     0.84714081714490819      14.597852476748875      22.006348527645123
   187   3      3.7081355817844037      13.922846573240102        23.5885405779743
   188   3      1.5221467206536761      12.228564938950289      20.424156477315936
   189   3       4.137287871872716      11.307705422021067      22.295028881571952
   190   3      1.0929944305653645      14.843706090169325      19.130644780913588
   191   3      3.4622819683639441      14.168700186660562      20.712836831242768
   192   3      1.7680003340741324      11.982711325529833      23.877220931901132
   193   2      1.6436652598539285      19.277463949898387      4.7465761509875461
   194   2      3.5866170425841504      17.334512167168164      1.5821920503291809
   195   2     0.97147589136511014      16.662322798679348      3.1643841006583617
   196   2      4.2588064110729658      19.949653318387206                       0
   197   1      3.5390722970262476      17.382056912726068      4.7465761509875461
   198   1      1.6912100054118324      19.229919204340483      1.5821920503291809
   199   1      4.3063511566308703       19.99719806394511      3.1643841006583617
   200   1     0.92393114580720703      16.614778053121441                       0
   201   3      4.3831414852931712      16.783841337879601      6.1844280243533092
   202   3     0.84714081714490819      19.828134779186954      3.0200439236949488
   203   3      3.7081355817844037      19.153128875678181      4.6022359740241274
   204   3      1.5221467206536761      17.458847241388369       1.437851873365767
   205   3       4.137287871872716      16.537987724459143      3.3087242776217765
   206   3      1.0929944305653645      20.073988392607404     0.14434017696341553
   207   3      3.4622819683639441      19.398982489098639      1.7265322272925971
   208   3      1.7680003340741324      17.212993627967911      4.8909163279509604
   209   2      1.6436652598539285      19.277463949898387      11.075344352304272
   210   2      3.5866170425841504      17.334512167168164      7.9109602516459052
   211   2     0.97147589136511014      16.662322798679348      9.4931523019750852
   212   2      4.2588064110729658      19.949653318387206      6.3287682013167235
   213   1      3.5390722970262476      17.382056912726068      11.075344352304272
   214   1      1.6912100054118324      19.229919204340483      7.9109602516459052
   215   1      4.3063511566308703       19.99719806394511      9.4931523019750852
   216   1     0.92393114580720703      16.614778053121441      6.3287682013167235
   217   3      4.3831414852931712      16.783841337879601      12.513196225670033
   218   3     0.84714081714490819      19.828134779186954      9.3488121250116727
   219   3      3.7081355817844037      19.153128875678181      10.931004175340853
   220   3      1.5221467206536761      17.458847241388369      7.7666200746824927
   221   3       4.137287871872716      16.537987724459143      9.6374924789384995
   222   3      1.0929944305653645      20.073988392607404      6.4731083782801395
   223   3      3.4622819683639441      19.398982489098639      8.0553004286093195
   224   3      1.7680003340741324      17.212993627967911      11.219684529267687
   225   2      1.6436652598539285      19.277463949898387      17.404112553620994
   226   2      3.5866170425841504      17.334512167168164      14.239728452962632
   227   2     0.97147589136511014      16.662322798679348       15.82192050329181
   228   2      4.2588064110729658      19.949653318387206      12.657536402633449
   229   1      3.5390722970262476      17.382056912726068      17.404112553620994
   230   1      1.6912100054118324      19.229919204340483      14.239728452962632
   231   1      4.3063511566308703       19.99719806394511       15.82192050329181
   232   1     0.92393114580720703      16.614778053121441      12.657536402633449
   233   3      4.3831414852931712      16.783841337879601       18.84196442698676
   234   3     0.84714081714490819      19.828134779186954      15.677580326328398
   235   3      3.7081355817844037      19.153128875678181      17.259772376657576
   236   3      1.5221467206536761      17.458847241388369      14.095388275999216
   237   3       4.137287871872716      16.537987724459143      15.966260680255226
   238   3      1.0929944305653645      20.073988392607404      12.801876579596867
   239   3      3.4622819683639441      19.398982489098639      14.384068629926048
   240   3      1.7680003340741324      17.212993627967911      17.548452730584408
   241   2      1.6436652598539285      19.277463949898387      23.732880754937721
   242   2      3.5866170425841504      17.334512167168164       20.56849665427935
   243   2     0.97147589136511014      16.662322798679348      22.150688704608534
   244   2      4.2588064110729658      19.949653318387206       18.98630460395017
   245   1      3.5390722970262476      17.382056912726068      23.732880754937721
   246   1      1.6912100054118324      19.229919204340483       20.56849665427935
   247   1      4.3063511566308703       19.99719806394511      22.150688704608534
   248   1     0.92393114580720703      16.614778053121441       18.98630460395017
   249   3      4.3831414852931712      16.783841337879601       25.17073262830348
   250   3     0.84714081714490819      19.828134779186954      22.006348527645123
   251   3      3.7081355817844037      19.153128875678181        23.5885405779743
   252   3      1.5221467206536761      17.458847241388369      20.424156477315936
   253   3       4.137287871872716      16.537987724459143      22.295028881571952
   254   3      1.0929944305653645      20.073988392607404      19.130644780913588
   255   3      3.4622819683639441      19.398982489098639      20.712836831242768
   256   3      1.7680003340741324      17.212993627967911      23.877220931901132
   257   2      6.8739475622920061      3.5866170425841504      4.7465761509875461
   258   2      8.8168993450222271      1.6436652598539279      1.5821920503291809
   259   2      6.2017581938031867      0.9714758913651097      3.1643841006583617
   260   2      9.4890887135110429      4.2588064110729684                       0
   261   1      8.7693545994643252      1.6912100054118315      4.7465761509875461
   262   1      6.9214923078499098      3.5390722970262458      1.5821920503291809
   263   1      9.5366334590689483      4.3063511566308703      3.1643841006583617
   264   1      6.1542134482452848     0.92393114580720537                       0
   265   3      9.6134237877312483      1.0929944305653643      6.1844280243533092
   266   3      6.0774231195829849       4.137287871872716      3.0200439236949488
   267   3      8.9384178842224813      3.4622819683639432      4.6022359740241274
   268   3      6.7524290230917536       1.768000334074131       1.437851873365767
   269   3      9.3675701743107922     0.84714081714490774      3.3087242776217765
   270   3      6.3232767330034427      4.3831414852931676     0.14434017696341553
   271   3      8.6925642708020217      3.7081355817844037      1.7265322272925971
   272   3      6.9982826365122097      1.5221467206536754      4.8909163279509604
   273   2      6.8739475622920061      3.5866170425841504      11.075344352304272
   274   2      8.8168993450222271      1.6436652598539279      7.9109602516459052
   275   2      6.2017581938031867      0.9714758913651097      9.4931523019750852
   276   2      9.4890887135110429      4.2588064110729684      6.3287682013167235
   277   1      8.7693545994643252      1.6912100054118315      11.075344352304272
   278   1      6.9214923078499098      3.5390722970262458      7.9109602516459052
   279   1      9.5366334590689483      4.3063511566308703      9.4931523019750852
   280   1      6.1542134482452848     0.92393114580720537      6.3287682013167235
   281   3      9.6134237877312483      1.0929944305653643      12.513196225670033
   282   3      6.0774231195829849       4.137287871872716      9.3488121250116727
   283   3      8.9384178842224813      3.4622819683639432      10.931004175340853
   284   3      6.7524290230917536       1.768000334074131      7.7666200746824927
   285   3      9.3675701743107922     0.84714081714490774      9.6374924789384995
   286   3      6.3232767330034427      4.3831414852931676      6.4731083782801395
   287   3      8.6925642708020217      3.7081355817844037      8.0553004286093195
   288   3      6.9982826365122097      1.5221467206536754      11.219684529267687
   289   2      6.8739475622920061      3.5866170425841504      17.404112553620994
   290   2      8.8168993450222271      1.6436652598539279      14.239728452962632
   291   2      6.2017581938031867      0.9714758913651097       15.82192050329181
   292   2      9.4890887135110429      4.2588064110729684      12.657536402633449
   293   1      8.7693545994643252      1.6912100054118315      17.404112553620994
   294   1      6.9214923078499098      3.5390722970262458      14.239728452962632
   295   1      9.5366334590689483      4.3063511566308703       15.82192050329181
   296   1      6.1542134482452848     0.92393114580720537      12.657536402633449
   297   3      9.6134237877312483      1.0929944305653643       18.84196442698676
   298   3      6.0774231195829849       4.137287871872716      15.677580326328398
   299   3      8.9384178842224813      3.4622819683639432      17.259772376657576
   300   3      6.7524290230917536       1.768000334074131      14.095388275999216
   301   3      9.3675701743107922     0.84714081714490774      15.966260680255226
   302   3      6.3232767330034427      4.3831414852931676      12.801876579596867
   303   3      8.6925642708020217      3.7081355817844037      14.384068629926048
   304   3      6.9982826365122097      1.5221467206536754      17.548452730584408
   305   2      6.8739475622920061      3.5866170425841504      23.732880754937721
   306   2      8.8168993450222271      1.6436652598539279       20.56849665427935
   307   2      6.2017581938031867      0.9714758913651097      22.150688704608534
   308   2      9.4890887135110429      4.2588064110729684       18.98630460395017
   309   1      8.7693545994643252      1.6912100054118315      23.732880754937721
   310   1      6.9214923078499098      3.5390722970262458       20.56849665427935
   311   1      9.5366334590689483      4.3063511566308703      22.150688704608534
   312   1      6.1542134482452848     0.92393114580720537       18.98630460395017
   313   3      9.6134237877312483      1.0929944305653643       25.17073262830348
   314   3      6.0774231195829849       4.137287871872716      22.006348527645123
   315   3      8.9384178842224813      3.4622819683639432        23.5885405779743
   316   3      6.7524290230917536       1.768000334074131      20.424156477315936
   317   3      9.3675701743107922     0.84714081714490774      22.295028881571952
   318   3      6.3232767330034427      4.3831414852931676      19.130644780913588
   319   3      8.6925642708020217      3.7081355817844037      20.712836831242768
   320   3      6.9982826365122097      1.5221467206536754      23.877220931901132
   321   2      6.8739475622920061      8.8168993450222288      4.7465761509875461
   322   2      8.8168993450222271       6.873947562292007      1.5821920503291809
   323   2      6.2017581938031867      6.2017581938031894      3.1643841006583617
   324   2      9.4890887135110429      9.4890887135110482                       0
   325   1      8.7693545994643252      6.9214923078499107      4.7465761509875461
   326   1      6.9214923078499098      8.7693545994643252      1.5821920503291809
   327   1      9.5366334590689483      9.5366334590689483      3.1643841006583617
   328   1      6.1542134482452848      6.1542134482452839                       0
   329   3      9.6134237877312483      6.3232767330034436      6.1844280243533092
   330   3      6.0774231195829849      9.3675701743107957      3.0200439236949488
   331   3      8.9384178842224813      8.6925642708020234      4.6022359740241274
   332   3      6.7524290230917536      6.9982826365122106       1.437851873365767
   333   3      9.3675701743107922      6.0774231195829866      3.3087242776217765
   334   3      6.3232767330034427      9.6134237877312465     0.14434017696341553
   335   3      8.6925642708020217      8.9384178842224831      1.7265322272925971
   336   3      6.9982826365122097      6.7524290230917554      4.8909163279509604
   337   2      6.8739475622920061      8.8168993450222288      11.075344352304272
   338   2      8.8168993450222271       6.873947562292007      7.9109602516459052
   339   2      6.2017581938031867      6.2017581938031894      9.4931523019750852
   340   2      9.4890887135110429      9.4890887135110482      6.3287682013167235
   341   1      8.7693545994643252      6.9214923078499107      11.075344352304272
   342   1      6.9214923078499098      8.7693545994643252      7.9109602516459052
   343   1      9.5366334590689483      9.5366334590689483      9.4931523019750852
   344   1      6.1542134482452848      6.1542134482452839      6.3287682013167235
   345   3      9.6134237877312483      6.3232767330034436      12.513196225670033
   346   3      6.0774231195829849      9.3675701743107957      9.3488121250116727
   347   3      8.9384178842224813      8.6925642708020234      10.931004175340853
   348   3      6.7524290230917536      6.9982826365122106      7.7666200746824927
   349   3      9.3675701743107922      6.0774231195829866      9.6374924789384995
   350   3      6.3232767330034427      9.6134237877312465      6.4731083782801395
   351   3      8.6925642708020217      8.9384178842224831      8.0553004286093195
   352   3      6.9982826365122097      6.7524290230917554      11.219684529267687
   353   2      6.8739475622920061      8.8168993450222288      17.404112553620994
   354   2      8.8168993450222271       6.873947562292007      14.239728452962632
   355   2      6.2017581938031867      6.2017581938031894       15.82192050329181
   356   2      9.4890887135110429      9.4890887135110482      12.657536402633449
   357   1      8.7693545994643252      6.9214923078499107      17.404112553620994