
     Program PWSCF v.7.3 starts on 20Aug2024 at 20:34: 5 

     This program is part of the open-source Quantum ESPRESSO suite
     for quantum simulation of materials; please cite
         "P. Giannozzi et al., J. Phys.:Condens. Matter 21 395502 (2009);
         "P. Giannozzi et al., J. Phys.:Condens. Matter 29 465901 (2017);
         "P. Giannozzi et al., J. Chem. Phys. 152 154105 (2020);
          URL http://www.quantum-espresso.org", 
     in publications or presentations arising from this work. More details at
     http://www.quantum-espresso.org/quote

     Parallel version (MPI), running on    12 processors

     MPI processes distributed on     1 nodes
     24940 MiB available memory on the printing compute node when the environment starts

     Waiting for input...
     Reading input from standard input

     Current dimensions of program PWSCF are:
     Max number of different atomic species (ntypx) = 10
     Max number of k-points (npk) =  40000
     Max angular momentum in pseudopotentials (lmaxx) =  4
     WARNING: atomic wfc #  3 for atom typeAl has zero norm
     WARNING: atomic wfc #  4 for atom typeAl has zero norm
     file Li.pbe-tm-gipaw-dc.UPF: wavefunction(s)  2S 2P 3S 3P renormalized
     Message from routine setup:
     using ibrav=0 with symmetry is DISCOURAGED, use correct ibrav instead

     R & G space division:  proc/nbgrp/npool/nimage =      12
     Subspace diagonalization in iterative solution of the eigenvalue problem:
     a serial algorithm will be used


     Parallelization info
     --------------------
     sticks:   dense  smooth     PW     G-vecs:    dense   smooth      PW
     Min         378     202     56                23312     9086    1348
     Max         379     204     57                23315     9087    1353
     Sum        4545    2433    673               279757   109035   16195

     Using Slab Decomposition



     bravais-lattice index     =            0
     lattice parameter (alat)  =       9.7670  a.u.
     unit-cell volume          =    1127.8649 (a.u.)^3
     number of atoms/cell      =           16
     number of atomic types    =            3
     number of electrons       =        64.00
     number of Kohn-Sham states=           32
     kinetic-energy cutoff     =      80.0000  Ry
     charge density cutoff     =     600.0000  Ry
     scf convergence threshold =      1.0E-10
     mixing beta               =       0.4000
     number of iterations used =            8  plain     mixing
     energy convergence thresh.=      1.6E-05
     force convergence thresh. =      1.0E-05
     Exchange-correlation=  SLA  PW   PBX  PBC
                           (   1   4   3   4   0   0   0)
     nstep                     =           50


     celldm(1)=   9.767049  celldm(2)=   0.000000  celldm(3)=   0.000000
     celldm(4)=   0.000000  celldm(5)=   0.000000  celldm(6)=   0.000000

     crystal axes: (cart. coord. in units of alat)
               a(1) = (   1.000000   0.000000   0.000000 )  
               a(2) = (   0.000000   1.000000   0.000000 )  
               a(3) = (   0.000000   0.000000   1.210506 )  

     reciprocal axes: (cart. coord. in units 2 pi/alat)
               b(1) = (  1.000000  0.000000  0.000000 )  
               b(2) = (  0.000000  1.000000  0.000000 )  
               b(3) = (  0.000000  0.000000  0.826101 )  


     PseudoPot. # 1 for Al read from file:
     ../../pseudo/Al.pbe-tm-gipaw-dc.UPF
     MD5 check sum: efdf9c81b1c08458edd46fe92d869955
     Pseudo is Norm-conserving, Zval =  3.0
     Generated by new atomic code, or converted to UPF format
     Using radial grid of 1519 points,  2 beta functions with: 
                l(1) =   0
                l(2) =   1

     PseudoPot. # 2 for Li read from file:
     ../../pseudo/Li.pbe-tm-gipaw-dc.UPF
     MD5 check sum: 258bf1e32d815cbe0990be85d5d6a6e5
     Pseudo is Norm-conserving + core correction, Zval =  1.0
     Generated by new atomic code, or converted to UPF format
     Using radial grid of 1371 points,  1 beta functions with: 
                l(1) =   0

     PseudoPot. # 3 for O  read from file:
     ../../pseudo/O.pbe-tm-new-gipaw-dc.UPF
     MD5 check sum: cd70c9dcf1f7d755502eb127a1501eea
     Pseudo is Norm-conserving, Zval =  6.0
     Generated by new atomic code, or converted to UPF format
     Using radial grid of 1469 points,  1 beta functions with: 
                l(1) =   0

     atomic species   valence    mass     pseudopotential
     Al                3.00    26.98154     Al( 1.00)
     Li                1.00     6.94100     Li( 1.00)
     O                 6.00    15.99940     O ( 1.00)

      8 Sym. Ops. (no inversion) found ( 6 have fractional translation)


                                    s                        frac. trans.

      isym =  1     identity                                     

 cryst.   s( 1) = (     1          0          0      )
                  (     0          1          0      )
                  (     0          0          1      )

 cart.    s( 1) = (  1.0000000  0.0000000  0.0000000 )
                  (  0.0000000  1.0000000  0.0000000 )
                  (  0.0000000  0.0000000  1.0000000 )


      isym =  2     180 deg rotation - cart. axis [0,0,1]        

 cryst.   s( 2) = (    -1          0          0      )    f =(  0.0000000 )
                  (     0         -1          0      )       (  0.0000000 )
                  (     0          0          1      )       (  0.5000000 )

 cart.    s( 2) = ( -1.0000000  0.0000000  0.0000000 )    f =(  0.0000000 )
                  (  0.0000000 -1.0000000  0.0000000 )       (  0.0000000 )
                  (  0.0000000  0.0000000  1.0000000 )       (  0.6052530 )


      isym =  3     180 deg rotation - cart. axis [0,1,0]        

 cryst.   s( 3) = (    -1          0          0      )    f =(  0.5000000 )
                  (     0          1          0      )       (  0.5000000 )
                  (     0          0         -1      )       ( -0.2500000 )

 cart.    s( 3) = ( -1.0000000  0.0000000  0.0000000 )    f =(  0.5000000 )
                  (  0.0000000  1.0000000  0.0000000 )       (  0.5000000 )
                  (  0.0000000  0.0000000 -1.0000000 )       ( -0.3026265 )


      isym =  4     180 deg rotation - cart. axis [1,0,0]        

 cryst.   s( 4) = (     1          0          0      )    f =( -0.5000000 )
                  (     0         -1          0      )       (  0.5000000 )
                  (     0          0         -1      )       (  0.2500000 )

 cart.    s( 4) = (  1.0000000  0.0000000  0.0000000 )    f =( -0.5000000 )
                  (  0.0000000 -1.0000000  0.0000000 )       (  0.5000000 )
                  (  0.0000000  0.0000000 -1.0000000 )       (  0.3026265 )


      isym =  5     180 deg rotation - cart. axis [1,1,0]        

 cryst.   s( 5) = (     0          1          0      )
                  (     1          0          0      )
                  (     0          0         -1      )

 cart.    s( 5) = (  0.0000000  1.0000000  0.0000000 )
                  (  1.0000000  0.0000000  0.0000000 )
                  (  0.0000000  0.0000000 -1.0000000 )


      isym =  6     180 deg rotation - cart. axis [1,-1,0]       

 cryst.   s( 6) = (     0         -1          0      )    f =(  0.0000000 )
                  (    -1          0          0      )       (  0.0000000 )
                  (     0          0         -1      )       (  0.5000000 )

 cart.    s( 6) = (  0.0000000 -1.0000000  0.0000000 )    f =(  0.0000000 )
                  ( -1.0000000  0.0000000  0.0000000 )       (  0.0000000 )
                  (  0.0000000  0.0000000 -1.0000000 )       (  0.6052530 )


      isym =  7      90 deg rotation - cart. axis [0,0,-1]       

 cryst.   s( 7) = (     0         -1          0      )    f =( -0.5000000 )
                  (     1          0          0      )       (  0.5000000 )
                  (     0          0          1      )       (  0.2500000 )

 cart.    s( 7) = (  0.0000000  1.0000000  0.0000000 )    f =( -0.5000000 )
                  ( -1.0000000  0.0000000  0.0000000 )       (  0.5000000 )
                  (  0.0000000  0.0000000  1.0000000 )       (  0.3026265 )


      isym =  8      90 deg rotation - cart. axis [0,0,1]        

 cryst.   s( 8) = (     0          1          0      )    f =(  0.5000000 )
                  (    -1          0          0      )       (  0.5000000 )
                  (     0          0          1      )       ( -0.2500000 )

 cart.    s( 8) = (  0.0000000 -1.0000000  0.0000000 )    f =(  0.5000000 )
                  (  1.0000000  0.0000000  0.0000000 )       (  0.5000000 )
                  (  0.0000000  0.0000000  1.0000000 )       ( -0.3026265 )


   Cartesian axes

     site n.     atom                  positions (alat units)
         1        Li     tau(   1) = (   0.3096000   0.6904000   0.9078795  )
         2        Li     tau(   2) = (   0.6904000   0.3096000   0.3026265  )
         3        Li     tau(   3) = (   0.1904000   0.1904000   0.6052530  )
         4        Li     tau(   4) = (   0.8096000   0.8096000   0.0000000  )
         5        Al     tau(   5) = (   0.6761000   0.3239000   0.9078795  )
         6        Al     tau(   6) = (   0.3239000   0.6761000   0.3026265  )
         7        Al     tau(   7) = (   0.8239000   0.8239000   0.6052530  )
         8        Al     tau(   8) = (   0.1761000   0.1761000   0.0000000  )
         9        O      tau(   9) = (   0.8376000   0.2099000   1.1831485  )
        10        O      tau(  10) = (   0.1624000   0.7901000   0.5778955  )
        11        O      tau(  11) = (   0.7099000   0.6624000   0.8805220  )
        12        O      tau(  12) = (   0.2901000   0.3376000   0.2752691  )
        13        O      tau(  13) = (   0.7901000   0.1624000   0.6326104  )
        14        O      tau(  14) = (   0.2099000   0.8376000   0.0273574  )
        15        O      tau(  15) = (   0.6624000   0.7099000   0.3299839  )
        16        O      tau(  16) = (   0.3376000   0.2901000   0.9352369  )

   Crystallographic axes

     site n.     atom                  positions (cryst. coord.)
         1        Li     tau(   1) = (  0.3096000  0.6904000  0.7500000  )
         2        Li     tau(   2) = (  0.6904000  0.3096000  0.2500000  )
         3        Li     tau(   3) = (  0.1904000  0.1904000  0.5000000  )
         4        Li     tau(   4) = (  0.8096000  0.8096000  0.0000000  )
         5        Al     tau(   5) = (  0.6761000  0.3239000  0.7500000  )
         6        Al     tau(   6) = (  0.3239000  0.6761000  0.2500000  )
         7        Al     tau(   7) = (  0.8239000  0.8239000  0.5000000  )
         8        Al     tau(   8) = (  0.1761000  0.1761000  0.0000000  )
         9        O      tau(   9) = (  0.8376000  0.2099000  0.9774000  )
        10        O      tau(  10) = (  0.1624000  0.7901000  0.4774000  )
        11        O      tau(  11) = (  0.7099000  0.6624000  0.7274000  )
        12        O      tau(  12) = (  0.2901000  0.3376000  0.2274000  )
        13        O      tau(  13) = (  0.7901000  0.1624000  0.5226000  )
        14        O      tau(  14) = (  0.2099000  0.8376000  0.0226000  )
        15        O      tau(  15) = (  0.6624000  0.7099000  0.2726000  )
        16        O      tau(  16) = (  0.3376000  0.2901000  0.7726000  )

     number of k points=   252
                       cart. coord. in units 2pi/alat
        k(    1) = (   0.0000000   0.0000000   0.0000000), wk =   0.0008503
        k(    2) = (   0.0000000   0.0000000   0.0688417), wk =   0.0017007
        k(    3) = (   0.0000000   0.0000000   0.1376835), wk =   0.0017007
        k(    4) = (   0.0000000   0.0000000   0.2065252), wk =   0.0017007
        k(    5) = (   0.0000000   0.0000000   0.2753670), wk =   0.0017007
        k(    6) = (   0.0000000   0.0000000   0.3442087), wk =   0.0017007
        k(    7) = (   0.0000000   0.0000000  -0.4130504), wk =   0.0008503
        k(    8) = (   0.0000000   0.0714286   0.0000000), wk =   0.0034014
        k(    9) = (   0.0000000   0.0714286   0.0688417), wk =   0.0068027
        k(   10) = (   0.0000000   0.0714286   0.1376835), wk =   0.0068027
        k(   11) = (   0.0000000   0.0714286   0.2065252), wk =   0.0068027
        k(   12) = (   0.0000000   0.0714286   0.2753670), wk =   0.0068027
        k(   13) = (   0.0000000   0.0714286   0.3442087), wk =   0.0068027
        k(   14) = (   0.0000000   0.0714286  -0.4130504), wk =   0.0034014
        k(   15) = (   0.0000000   0.1428571   0.0000000), wk =   0.0034014
        k(   16) = (   0.0000000   0.1428571   0.0688417), wk =   0.0068027
        k(   17) = (   0.0000000   0.1428571   0.1376835), wk =   0.0068027
        k(   18) = (   0.0000000   0.1428571   0.2065252), wk =   0.0068027
        k(   19) = (   0.0000000   0.1428571   0.2753670), wk =   0.0068027
        k(   20) = (   0.0000000   0.1428571   0.3442087), wk =   0.0068027
        k(   21) = (   0.0000000   0.1428571  -0.4130504), wk =   0.0034014
        k(   22) = (   0.0000000   0.2142857   0.0000000), wk =   0.0034014
        k(   23) = (   0.0000000   0.2142857   0.0688417), wk =   0.0068027
        k(   24) = (   0.0000000   0.2142857   0.1376835), wk =   0.0068027
        k(   25) = (   0.0000000   0.2142857   0.2065252), wk =   0.0068027
        k(   26) = (   0.0000000   0.2142857   0.2753670), wk =   0.0068027
        k(   27) = (   0.0000000   0.2142857   0.3442087), wk =   0.0068027
        k(   28) = (   0.0000000   0.2142857  -0.4130504), wk =   0.0034014
        k(   29) = (   0.0000000   0.2857143   0.0000000), wk =   0.0034014
        k(   30) = (   0.0000000   0.2857143   0.0688417), wk =   0.0068027
        k(   31) = (   0.0000000   0.2857143   0.1376835), wk =   0.0068027
        k(   32) = (   0.0000000   0.2857143   0.2065252), wk =   0.0068027
        k(   33) = (   0.0000000   0.2857143   0.2753670), wk =   0.0068027
        k(   34) = (   0.0000000   0.2857143   0.3442087), wk =   0.0068027
        k(   35) = (   0.0000000   0.2857143  -0.4130504), wk =   0.0034014
        k(   36) = (   0.0000000   0.3571429   0.0000000), wk =   0.0034014
        k(   37) = (   0.0000000   0.3571429   0.0688417), wk =   0.0068027
        k(   38) = (   0.0000000   0.3571429   0.1376835), wk =   0.0068027
        k(   39) = (   0.0000000   0.3571429   0.2065252), wk =   0.0068027
        k(   40) = (   0.0000000   0.3571429   0.2753670), wk =   0.0068027
        k(   41) = (   0.0000000   0.3571429   0.3442087), wk =   0.0068027
        k(   42) = (   0.0000000   0.3571429  -0.4130504), wk =   0.0034014
        k(   43) = (   0.0000000   0.4285714   0.0000000), wk =   0.0034014
        k(   44) = (   0.0000000   0.4285714   0.0688417), wk =   0.0068027
        k(   45) = (   0.0000000   0.4285714   0.1376835), wk =   0.0068027
        k(   46) = (   0.0000000   0.4285714   0.2065252), wk =   0.0068027
        k(   47) = (   0.0000000   0.4285714   0.2753670), wk =   0.0068027
        k(   48) = (   0.0000000   0.4285714   0.3442087), wk =   0.0068027
        k(   49) = (   0.0000000   0.4285714  -0.4130504), wk =   0.0034014
        k(   50) = (   0.0000000  -0.5000000   0.0000000), wk =   0.0017007
        k(   51) = (   0.0000000  -0.5000000   0.0688417), wk =   0.0034014
        k(   52) = (   0.0000000  -0.5000000   0.1376835), wk =   0.0034014
        k(   53) = (   0.0000000  -0.5000000   0.2065252), wk =   0.0034014
        k(   54) = (   0.0000000  -0.5000000   0.2753670), wk =   0.0034014
        k(   55) = (   0.0000000  -0.5000000   0.3442087), wk =   0.0034014
        k(   56) = (   0.0000000  -0.5000000  -0.4130504), wk =   0.0017007
        k(   57) = (   0.0714286   0.0714286   0.0000000), wk =   0.0034014
        k(   58) = (   0.0714286   0.0714286   0.0688417), wk =   0.0068027
        k(   59) = (   0.0714286   0.0714286   0.1376835), wk =   0.0068027
        k(   60) = (   0.0714286   0.0714286   0.2065252), wk =   0.0068027
        k(   61) = (   0.0714286   0.0714286   0.2753670), wk =   0.0068027
        k(   62) = (   0.0714286   0.0714286   0.3442087), wk =   0.0068027
        k(   63) = (   0.0714286   0.0714286  -0.4130504), wk =   0.0034014
        k(   64) = (   0.0714286   0.1428571   0.0000000), wk =   0.0068027
        k(   65) = (   0.0714286   0.1428571   0.0688417), wk =   0.0136054
        k(   66) = (   0.0714286   0.1428571   0.1376835), wk =   0.0136054
        k(   67) = (   0.0714286   0.1428571   0.2065252), wk =   0.0136054
        k(   68) = (   0.0714286   0.1428571   0.2753670), wk =   0.0136054
        k(   69) = (   0.0714286   0.1428571   0.3442087), wk =   0.0136054
        k(   70) = (   0.0714286   0.1428571  -0.4130504), wk =   0.0068027
        k(   71) = (   0.0714286   0.2142857   0.0000000), wk =   0.0068027
        k(   72) = (   0.0714286   0.2142857   0.0688417), wk =   0.0136054
        k(   73) = (   0.0714286   0.2142857   0.1376835), wk =   0.0136054
        k(   74) = (   0.0714286   0.2142857   0.2065252), wk =   0.0136054
        k(   75) = (   0.0714286   0.2142857   0.2753670), wk =   0.0136054
        k(   76) = (   0.0714286   0.2142857   0.3442087), wk =   0.0136054
        k(   77) = (   0.0714286   0.2142857  -0.4130504), wk =   0.0068027
        k(   78) = (   0.0714286   0.2857143   0.0000000), wk =   0.0068027
        k(   79) = (   0.0714286   0.2857143   0.0688417), wk =   0.0136054
        k(   80) = (   0.0714286   0.2857143   0.1376835), wk =   0.0136054
        k(   81) = (   0.0714286   0.2857143   0.2065252), wk =   0.0136054
        k(   82) = (   0.0714286   0.2857143   0.2753670), wk =   0.0136054
        k(   83) = (   0.0714286   0.2857143   0.3442087), wk =   0.0136054
        k(   84) = (   0.0714286   0.2857143  -0.4130504), wk =   0.0068027
        k(   85) = (   0.0714286   0.3571429   0.0000000), wk =   0.0068027
        k(   86) = (   0.0714286   0.3571429   0.0688417), wk =   0.0136054
        k(   87) = (   0.0714286   0.3571429   0.1376835), wk =   0.0136054
        k(   88) = (   0.0714286   0.3571429   0.2065252), wk =   0.0136054
        k(   89) = (   0.0714286   0.3571429   0.2753670), wk =   0.0136054
        k(   90) = (   0.0714286   0.3571429   0.3442087), wk =   0.0136054
        k(   91) = (   0.0714286   0.3571429  -0.4130504), wk =   0.0068027
        k(   92) = (   0.0714286   0.4285714   0.0000000), wk =   0.0068027
        k(   93) = (   0.0714286   0.4285714   0.0688417), wk =   0.0136054
        k(   94) = (   0.0714286   0.4285714   0.1376835), wk =   0.0136054
        k(   95) = (   0.0714286   0.4285714   0.2065252), wk =   0.0136054
        k(   96) = (   0.0714286   0.4285714   0.2753670), wk =   0.0136054
        k(   97) = (   0.0714286   0.4285714   0.3442087), wk =   0.0136054
        k(   98) = (   0.0714286   0.4285714  -0.4130504), wk =   0.0068027
        k(   99) = (   0.0714286  -0.5000000   0.0000000), wk =   0.0034014
        k(  100) = (   0.0714286  -0.5000000   0.0688417), wk =   0.0068027
        k(  101) = (   0.0714286  -0.5000000   0.1376835), wk =   0.0068027
        k(  102) = (   0.0714286  -0.5000000   0.2065252), wk =   0.0068027
        k(  103) = (   0.0714286  -0.5000000   0.2753670), wk =   0.0068027
        k(  104) = (   0.0714286  -0.5000000   0.3442087), wk =   0.0068027
        k(  105) = (   0.0714286  -0.5000000  -0.4130504), wk =   0.0034014
        k(  106) = (   0.1428571   0.1428571   0.0000000), wk =   0.0034014
        k(  107) = (   0.1428571   0.1428571   0.0688417), wk =   0.0068027
        k(  108) = (   0.1428571   0.1428571   0.1376835), wk =   0.0068027
        k(  109) = (   0.1428571   0.1428571   0.2065252), wk =   0.0068027
        k(  110) = (   0.1428571   0.1428571   0.2753670), wk =   0.0068027
        k(  111) = (   0.1428571   0.1428571   0.3442087), wk =   0.0068027
        k(  112) = (   0.1428571   0.1428571  -0.4130504), wk =   0.0034014
        k(  113) = (   0.1428571   0.2142857   0.0000000), wk =   0.0068027
        k(  114) = (   0.1428571   0.2142857   0.0688417), wk =   0.0136054
        k(  115) = (   0.1428571   0.2142857   0.1376835), wk =   0.0136054
        k(  116) = (   0.1428571   0.2142857   0.2065252), wk =   0.0136054
        k(  117) = (   0.1428571   0.2142857   0.2753670), wk =   0.0136054
        k(  118) = (   0.1428571   0.2142857   0.3442087), wk =   0.0136054
        k(  119) = (   0.1428571   0.2142857  -0.4130504), wk =   0.0068027
        k(  120) = (   0.1428571   0.2857143   0.0000000), wk =   0.0068027
        k(  121) = (   0.1428571   0.2857143   0.0688417), wk =   0.0136054
        k(  122) = (   0.1428571   0.2857143   0.1376835), wk =   0.0136054
        k(  123) = (   0.1428571   0.2857143   0.2065252), wk =   0.0136054
        k(  124) = (   0.1428571   0.2857143   0.2753670), wk =   0.0136054
        k(  125) = (   0.1428571   0.2857143   0.3442087), wk =   0.0136054
        k(  126) = (   0.1428571   0.2857143  -0.4130504), wk =   0.0068027
        k(  127) = (   0.1428571   0.3571429   0.0000000), wk =   0.0068027
        k(  128) = (   0.1428571   0.3571429   0.0688417), wk =   0.0136054
        k(  129) = (   0.1428571   0.3571429   0.1376835), wk =   0.0136054
        k(  130) = (   0.1428571   0.3571429   0.2065252), wk =   0.0136054
        k(  131) = (   0.1428571   0.3571429   0.2753670), wk =   0.0136054
        k(  132) = (   0.1428571   0.3571429   0.3442087), wk =   0.0136054
        k(  133) = (   0.1428571   0.3571429  -0.4130504), wk =   0.0068027
        k(  134) = (   0.1428571   0.4285714   0.0000000), wk =   0.0068027
        k(  135) = (   0.1428571   0.4285714   0.0688417), wk =   0.0136054
        k(  136) = (   0.1428571   0.4285714   0.1376835), wk =   0.0136054
        k(  137) = (   0.1428571   0.4285714   0.2065252), wk =   0.0136054
        k(  138) = (   0.1428571   0.4285714   0.2753670), wk =   0.0136054
        k(  139) = (   0.1428571   0.4285714   0.3442087), wk =   0.0136054
        k(  140) = (   0.1428571   0.4285714  -0.4130504), wk =   0.0068027
        k(  141) = (   0.1428571  -0.5000000   0.0000000), wk =   0.0034014
        k(  142) = (   0.1428571  -0.5000000   0.0688417), wk =   0.0068027
        k(  143) = (   0.1428571  -0.5000000   0.1376835), wk =   0.0068027
        k(  144) = (   0.1428571  -0.5000000   0.2065252), wk =   0.0068027
        k(  145) = (   0.1428571  -0.5000000   0.2753670), wk =   0.0068027
        k(  146) = (   0.1428571  -0.5000000   0.3442087), wk =   0.0068027
        k(  147) = (   0.1428571  -0.5000000  -0.4130504), wk =   0.0034014
        k(  148) = (   0.2142857   0.2142857   0.0000000), wk =   0.0034014
        k(  149) = (   0.2142857   0.2142857   0.0688417), wk =   0.0068027
        k(  150) = (   0.2142857   0.2142857   0.1376835), wk =   0.0068027
        k(  151) = (   0.2142857   0.2142857   0.2065252), wk =   0.0068027
        k(  152) = (   0.2142857   0.2142857   0.2753670), wk =   0.0068027
        k(  153) = (   0.2142857   0.2142857   0.3442087), wk =   0.0068027
        k(  154) = (   0.2142857   0.2142857  -0.4130504), wk =   0.0034014
        k(  155) = (   0.2142857   0.2857143   0.0000000), wk =   0.0068027
        k(  156) = (   0.2142857   0.2857143   0.0688417), wk =   0.0136054
        k(  157) = (   0.2142857   0.2857143   0.1376835), wk =   0.0136054
        k(  158) = (   0.2142857   0.2857143   0.2065252), wk =   0.0136054
        k(  159) = (   0.2142857   0.2857143   0.2753670), wk =   0.0136054
        k(  160) = (   0.2142857   0.2857143   0.3442087), wk =   0.0136054
        k(  161) = (   0.2142857   0.2857143  -0.4130504), wk =   0.0068027
        k(  162) = (   0.2142857   0.3571429   0.0000000), wk =   0.0068027
        k(  163) = (   0.2142857   0.3571429   0.0688417), wk =   0.0136054
        k(  164) = (   0.2142857   0.3571429   0.1376835), wk =   0.0136054
        k(  165) = (   0.2142857   0.3571429   0.2065252), wk =   0.0136054
        k(  166) = (   0.2142857   0.3571429   0.2753670), wk =   0.0136054
        k(  167) = (   0.2142857   0.3571429   0.3442087), wk =   0.0136054
        k(  168) = (   0.2142857   0.3571429  -0.4130504), wk =   0.0068027
        k(  169) = (   0.2142857   0.4285714   0.0000000), wk =   0.0068027
        k(  170) = (   0.2142857   0.4285714   0.0688417), wk =   0.0136054
        k(  171) = (   0.2142857   0.4285714   0.1376835), wk =   0.0136054
        k(  172) = (   0.2142857   0.4285714   0.2065252), wk =   0.0136054
        k(  173) = (   0.2142857   0.4285714   0.2753670), wk =   0.0136054
        k(  174) = (   0.2142857   0.4285714   0.3442087), wk =   0.0136054
        k(  175) = (   0.2142857   0.4285714  -0.4130504), wk =   0.0068027
        k(  176) = (   0.2142857  -0.5000000   0.0000000), wk =   0.0034014
        k(  177) = (   0.2142857  -0.5000000   0.0688417), wk =   0.0068027
        k(  178) = (   0.2142857  -0.5000000   0.1376835), wk =   0.0068027
        k(  179) = (   0.2142857  -0.5000000   0.2065252), wk =   0.0068027
        k(  180) = (   0.2142857  -0.5000000   0.2753670), wk =   0.0068027
        k(  181) = (   0.2142857  -0.5000000   0.3442087), wk =   0.0068027
        k(  182) = (   0.2142857  -0.5000000  -0.4130504), wk =   0.0034014
        k(  183) = (   0.2857143   0.2857143   0.0000000), wk =   0.0034014
        k(  184) = (   0.2857143   0.2857143   0.0688417), wk =   0.0068027
        k(  185) = (   0.2857143   0.2857143   0.1376835), wk =   0.0068027
        k(  186) = (   0.2857143   0.2857143   0.2065252), wk =   0.0068027
        k(  187) = (   0.2857143   0.2857143   0.2753670), wk =   0.0068027
        k(  188) = (   0.2857143   0.2857143   0.3442087), wk =   0.0068027
        k(  189) = (   0.2857143   0.2857143  -0.4130504), wk =   0.0034014
        k(  190) = (   0.2857143   0.3571429   0.0000000), wk =   0.0068027
        k(  191) = (   0.2857143   0.3571429   0.0688417), wk =   0.0136054
        k(  192) = (   0.2857143   0.3571429   0.1376835), wk =   0.0136054
        k(  193) = (   0.2857143   0.3571429   0.2065252), wk =   0.0136054
        k(  194) = (   0.2857143   0.3571429   0.2753670), wk =   0.0136054
        k(  195) = (   0.2857143   0.3571429   0.3442087), wk =   0.0136054
        k(  196) = (   0.2857143   0.3571429  -0.4130504), wk =   0.0068027
        k(  197) = (   0.2857143   0.4285714   0.0000000), wk =   0.0068027
        k(  198) = (   0.2857143   0.4285714   0.0688417), wk =   0.0136054
        k(  199) = (   0.2857143   0.4285714   0.1376835), wk =   0.0136054
        k(  200) = (   0.2857143   0.4285714   0.2065252), wk =   0.0136054
        k(  201) = (   0.2857143   0.4285714   0.2753670), wk =   0.0136054
        k(  202) = (   0.2857143   0.4285714   0.3442087), wk =   0.0136054
        k(  203) = (   0.2857143   0.4285714  -0.4130504), wk =   0.0068027
        k(  204) = (   0.2857143  -0.5000000   0.0000000), wk =   0.0034014
        k(  205) = (   0.2857143  -0.5000000   0.0688417), wk =   0.0068027
        k(  206) = (   0.2857143  -0.5000000   0.1376835), wk =   0.0068027
        k(  207) = (   0.2857143  -0.5000000   0.2065252), wk =   0.0068027
        k(  208) = (   0.2857143  -0.5000000   0.2753670), wk =   0.0068027
        k(  209) = (   0.2857143  -0.5000000   0.3442087), wk =   0.0068027
        k(  210) = (   0.2857143  -0.5000000  -0.4130504), wk =   0.0034014
        k(  211) = (   0.3571429   0.3571429   0.0000000), wk =   0.0034014
        k(  212) = (   0.3571429   0.3571429   0.0688417), wk =   0.0068027
        k(  213) = (   0.3571429   0.3571429   0.1376835), wk =   0.0068027
        k(  214) = (   0.3571429   0.3571429   0.2065252), wk =   0.0068027
        k(  215) = (   0.3571429   0.3571429   0.2753670), wk =   0.0068027
        k(  216) = (   0.3571429   0.3571429   0.3442087), wk =   0.0068027
        k(  217) = (   0.3571429   0.3571429  -0.4130504), wk =   0.0034014
        k(  218) = (   0.3571429   0.4285714   0.0000000), wk =   0.0068027
        k(  219) = (   0.3571429   0.4285714   0.0688417), wk =   0.0136054
        k(  220) = (   0.3571429   0.4285714   0.1376835), wk =   0.0136054
        k(  221) = (   0.3571429   0.4285714   0.2065252), wk =   0.0136054
        k(  222) = (   0.3571429   0.4285714   0.2753670), wk =   0.0136054
        k(  223) = (   0.3571429   0.4285714   0.3442087), wk =   0.0136054
        k(  224) = (   0.3571429   0.4285714  -0.4130504), wk =   0.0068027
        k(  225) = (   0.3571429  -0.5000000   0.0000000), wk =   0.0034014
        k(  226) = (   0.3571429  -0.5000000   0.0688417), wk =   0.0068027
        k(  227) = (   0.3571429  -0.5000000   0.1376835), wk =   0.0068027
        k(  228) = (   0.3571429  -0.5000000   0.2065252), wk =   0.0068027
        k(  229) = (   0.3571429  -0.5000000   0.2753670), wk =   0.0068027
        k(  230) = (   0.3571429  -0.5000000   0.3442087), wk =   0.0068027
        k(  231) = (   0.3571429  -0.5000000  -0.4130504), wk =   0.0034014
        k(  232) = (   0.4285714   0.4285714   0.0000000), wk =   0.0034014
        k(  233) = (   0.4285714   0.4285714   0.0688417), wk =   0.0068027
        k(  234) = (   0.4285714   0.4285714   0.1376835), wk =   0.0068027
        k(  235) = (   0.4285714   0.4285714   0.2065252), wk =   0.0068027
        k(  236) = (   0.4285714   0.4285714   0.2753670), wk =   0.0068027
        k(  237) = (   0.4285714   0.4285714   0.3442087), wk =   0.0068027
        k(  238) = (   0.4285714   0.4285714  -0.4130504), wk =   0.0034014
        k(  239) = (   0.4285714  -0.5000000   0.0000000), wk =   0.0034014
        k(  240) = (   0.4285714  -0.5000000   0.0688417), wk =   0.0068027
        k(  241) = (   0.4285714  -0.5000000   0.1376835), wk =   0.0068027
        k(  242) = (   0.4285714  -0.5000000   0.2065252), wk =   0.0068027
        k(  243) = (   0.4285714  -0.5000000   0.2753670), wk =   0.0068027
        k(  244) = (   0.4285714  -0.5000000   0.3442087), wk =   0.0068027
        k(  245) = (   0.4285714  -0.5000000  -0.4130504), wk =   0.0034014
        k(  246) = (  -0.5000000  -0.5000000   0.0000000), wk =   0.0008503
        k(  247) = (  -0.5000000  -0.5000000   0.0688417), wk =   0.0017007
        k(  248) = (  -0.5000000  -0.5000000   0.1376835), wk =   0.0017007
        k(  249) = (  -0.5000000  -0.5000000   0.2065252), wk =   0.0017007
        k(  250) = (  -0.5000000  -0.5000000   0.2753670), wk =   0.0017007
        k(  251) = (  -0.5000000  -0.5000000   0.3442087), wk =   0.0017007
        k(  252) = (  -0.5000000  -0.5000000  -0.4130504), wk =   0.0008503

                       cryst. coord.
        k(    1) = (   0.0000000   0.0000000   0.0000000), wk =   0.0008503
        k(    2) = (   0.0000000   0.0000000   0.0833333), wk =   0.0017007
        k(    3) = (   0.0000000   0.0000000   0.1666667), wk =   0.0017007
        k(    4) = (   0.0000000   0.0000000   0.2500000), wk =   0.0017007
        k(    5) = (   0.0000000   0.0000000   0.3333333), wk =   0.0017007
        k(    6) = (   0.0000000   0.0000000   0.4166667), wk =   0.0017007
        k(    7) = (   0.0000000   0.0000000  -0.5000000), wk =   0.0008503
        k(    8) = (   0.0000000   0.0714286   0.0000000), wk =   0.0034014
        k(    9) = (   0.0000000   0.0714286   0.0833333), wk =   0.0068027
        k(   10) = (   0.0000000   0.0714286   0.1666667), wk =   0.0068027
        k(   11) = (   0.0000000   0.0714286   0.2500000), wk =   0.0068027
        k(   12) = (   0.0000000   0.0714286   0.3333333), wk =   0.0068027
        k(   13) = (   0.0000000   0.0714286   0.4166667), wk =   0.0068027
        k(   14) = (   0.0000000   0.0714286  -0.5000000), wk =   0.0034014
        k(   15) = (   0.0000000   0.1428571   0.0000000), wk =   0.0034014
        k(   16) = (   0.0000000   0.1428571   0.0833333), wk =   0.0068027
        k(   17) = (   0.0000000   0.1428571   0.1666667), wk =   0.0068027
        k(   18) = (   0.0000000   0.1428571   0.2500000), wk =   0.0068027
        k(   19) = (   0.0000000   0.1428571   0.3333333), wk =   0.0068027
        k(   20) = (   0.0000000   0.1428571   0.4166667), wk =   0.0068027
        k(   21) = (   0.0000000   0.1428571  -0.5000000), wk =   0.0034014
        k(   22) = (   0.0000000   0.2142857   0.0000000), wk =   0.0034014
        k(   23) = (   0.0000000   0.2142857   0.0833333), wk =   0.0068027
        k(   24) = (   0.0000000   0.2142857   0.1666667), wk =   0.0068027
        k(   25) = (   0.0000000   0.2142857   0.2500000), wk =   0.0068027
        k(   26) = (   0.0000000   0.2142857   0.3333333), wk =   0.0068027
        k(   27) = (   0.0000000   0.2142857   0.4166667), wk =   0.0068027
        k(   28) = (   0.0000000   0.2142857  -0.5000000), wk =   0.0034014
        k(   29) = (   0.0000000   0.2857143   0.0000000), wk =   0.0034014
        k(   30) = (   0.0000000   0.2857143   0.0833333), wk =   0.0068027
        k(   31) = (   0.0000000   0.2857143   0.1666667), wk =   0.0068027
        k(   32) = (   0.0000000   0.2857143   0.2500000), wk =   0.0068027
        k(   33) = (   0.0000000   0.2857143   0.3333333), wk =   0.0068027
        k(   34) = (   0.0000000   0.2857143   0.4166667), wk =   0.0068027
        k(   35) = (   0.0000000   0.2857143  -0.5000000), wk =   0.0034014
        k(   36) = (   0.0000000   0.3571429   0.0000000), wk =   0.0034014
        k(   37) = (   0.0000000   0.3571429   0.0833333), wk =   0.0068027
        k(   38) = (   0.0000000   0.3571429   0.1666667), wk =   0.0068027
        k(   39) = (   0.0000000   0.3571429   0.2500000), wk =   0.0068027
        k(   40) = (   0.0000000   0.3571429   0.3333333), wk =   0.0068027
        k(   41) = (   0.0000000   0.3571429   0.4166667), wk =   0.0068027
        k(   42) = (   0.0000000   0.3571429  -0.5000000), wk =   0.0034014
        k(   43) = (   0.0000000   0.4285714   0.0000000), wk =   0.0034014
        k(   44) = (   0.0000000   0.4285714   0.0833333), wk =   0.0068027
        k(   45) = (   0.0000000   0.4285714   0.1666667), wk =   0.0068027
        k(   46) = (   0.0000000   0.4285714   0.2500000), wk =   0.0068027
        k(   47) = (   0.0000000   0.4285714   0.3333333), wk =   0.0068027
        k(   48) = (   0.0000000   0.4285714   0.4166667), wk =   0.0068027
        k(   49) = (   0.0000000   0.4285714  -0.5000000), wk =   0.0034014
        k(   50) = (   0.0000000  -0.5000000   0.0000000), wk =   0.0017007
        k(   51) = (   0.0000000  -0.5000000   0.0833333), wk =   0.0034014
        k(   52) = (   0.0000000  -0.5000000   0.1666667), wk =   0.0034014
        k(   53) = (   0.0000000  -0.5000000   0.2500000), wk =   0.0034014
        k(   54) = (   0.0000000  -0.5000000   0.3333333), wk =   0.0034014
        k(   55) = (   0.0000000  -0.5000000   0.4166667), wk =   0.0034014
        k(   56) = (   0.0000000  -0.5000000  -0.5000000), wk =   0.0017007
        k(   57) = (   0.0714286   0.0714286   0.0000000), wk =   0.0034014
        k(   58) = (   0.0714286   0.0714286   0.0833333), wk =   0.0068027
        k(   59) = (   0.0714286   0.0714286   0.1666667), wk =   0.0068027
        k(   60) = (   0.0714286   0.0714286   0.2500000), wk =   0.0068027
        k(   61) = (   0.0714286   0.0714286   0.3333333), wk =   0.0068027
        k(   62) = (   0.0714286   0.0714286   0.4166667), wk =   0.0068027
        k(   63) = (   0.0714286   0.0714286  -0.5000000), wk =   0.0034014
        k(   64) = (   0.0714286   0.1428571   0.0000000), wk =   0.0068027
        k(   65) = (   0.0714286   0.1428571   0.0833333), wk =   0.0136054
        k(   66) = (   0.0714286   0.1428571   0.1666667), wk =   0.0136054
        k(   67) = (   0.0714286   0.1428571   0.2500000), wk =   0.0136054
        k(   68) = (   0.0714286   0.1428571   0.3333333), wk =   0.0136054
        k(   69) = (   0.0714286   0.1428571   0.4166667), wk =   0.0136054
        k(   70) = (   0.0714286   0.1428571  -0.5000000), wk =   0.0068027
        k(   71) = (   0.0714286   0.2142857   0.0000000), wk =   0.0068027
        k(   72) = (   0.0714286   0.2142857   0.0833333), wk =   0.0136054
        k(   73) = (   0.0714286   0.2142857   0.1666667), wk =   0.0136054
        k(   74) = (   0.0714286   0.2142857   0.2500000), wk =   0.0136054
        k(   75) = (   0.0714286   0.2142857   0.3333333), wk =   0.0136054
        k(   76) = (   0.0714286   0.2142857   0.4166667), wk =   0.0136054
        k(   77) = (   0.0714286   0.2142857  -0.5000000), wk =   0.0068027
        k(   78) = (   0.0714286   0.2857143   0.0000000), wk =   0.0068027
        k(   79) = (   0.0714286   0.2857143   0.0833333), wk =   0.0136054
        k(   80) = (   0.0714286   0.2857143   0.1666667), wk =   0.0136054
        k(   81) = (   0.0714286   0.2857143   0.2500000), wk =   0.0136054
        k(   82) = (   0.0714286   0.2857143   0.3333333), wk =   0.0136054
        k(   83) = (   0.0714286   0.2857143   0.4166667), wk =   0.0136054
        k(   84) = (   0.0714286   0.2857143  -0.5000000), wk =   0.0068027
        k(   85) = (   0.0714286   0.3571429   0.0000000), wk =   0.0068027
        k(   86) = (   0.0714286   0.3571429   0.0833333), wk =   0.0136054
        k(   87) = (   0.0714286   0.3571429   0.1666667), wk =   0.0136054
        k(   88) = (   0.0714286   0.3571429   0.2500000), wk =   0.0136054
        k(   89) = (   0.0714286   0.3571429   0.3333333), wk =   0.0136054
        k(   90) = (   0.0714286   0.3571429   0.4166667), wk =   0.0136054
        k(   91) = (   0.0714286   0.3571429  -0.5000000), wk =   0.0068027
        k(   92) = (   0.0714286   0.4285714   0.0000000), wk =   0.0068027
        k(   93) = (   0.0714286   0.4285714   0.0833333), wk =   0.0136054
        k(   94) = (   0.0714286   0.4285714   0.1666667), wk =   0.0136054
        k(   95) = (   0.0714286   0.4285714   0.2500000), wk =   0.0136054
        k(   96) = (   0.0714286   0.4285714   0.3333333), wk =   0.0136054
        k(   97) = (   0.0714286   0.4285714   0.4166667), wk =   0.0136054
        k(   98) = (   0.0714286   0.4285714  -0.5000000), wk =   0.0068027
        k(   99) = (   0.0714286  -0.5000000   0.0000000), wk =   0.0034014
        k(  100) = (   0.0714286  -0.5000000   0.0833333), wk =   0.0068027
        k(  101) = (   0.0714286  -0.5000000   0.1666667), wk =   0.0068027
        k(  102) = (   0.0714286  -0.5000000   0.2500000), wk =   0.0068027
        k(  103) = (   0.0714286  -0.5000000   0.3333333), wk =   0.0068027
        k(  104) = (   0.0714286  -0.5000000   0.4166667), wk =   0.0068027
        k(  105) = (   0.0714286  -0.5000000  -0.5000000), wk =   0.0034014
        k(  106) = (   0.1428571   0.1428571   0.0000000), wk =   0.0034014
        k(  107) = (   0.1428571   0.1428571   0.0833333), wk =   0.0068027
        k(  108) = (   0.1428571   0.1428571   0.1666667), wk =   0.0068027
        k(  109) = (   0.1428571   0.1428571   0.2500000), wk =   0.0068027
        k(  110) = (   0.1428571   0.1428571   0.3333333), wk =   0.0068027
        k(  111) = (   0.1428571   0.1428571   0.4166667), wk =   0.0068027
        k(  112) = (   0.1428571   0.1428571  -0.5000000), wk =   0.0034014
        k(  113) = (   0.1428571   0.2142857   0.0000000), wk =   0.0068027
        k(  114) = (   0.1428571   0.2142857   0.0833333), wk =   0.0136054
        k(  115) = (   0.1428571   0.2142857   0.1666667), wk =   0.0136054
        k(  116) = (   0.1428571   0.2142857   0.2500000), wk =   0.0136054
        k(  117) = (   0.1428571   0.2142857   0.3333333), wk =   0.0136054
        k(  118) = (   0.1428571   0.2142857   0.4166667), wk =   0.0136054
        k(  119) = (   0.1428571   0.2142857  -0.5000000), wk =   0.0068027
        k(  120) = (   0.1428571   0.2857143   0.0000000), wk =   0.0068027
        k(  121) = (   0.1428571   0.2857143   0.0833333), wk =   0.0136054
        k(  122) = (   0.1428571   0.2857143   0.1666667), wk =   0.0136054
        k(  123) = (   0.1428571   0.2857143   0.2500000), wk =   0.0136054
        k(  124) = (   0.1428571   0.2857143   0.3333333), wk =   0.0136054
        k(  125) = (   0.1428571   0.2857143   0.4166667), wk =   0.0136054
        k(  126) = (   0.1428571   0.2857143  -0.5000000), wk =   0.0068027
        k(  127) = (   0.1428571   0.3571429   0.0000000), wk =   0.0068027
        k(  128) = (   0.1428571   0.3571429   0.0833333), wk =   0.0136054
        k(  129) = (   0.1428571   0.3571429   0.1666667), wk =   0.0136054
        k(  130) = (   0.1428571   0.3571429   0.2500000), wk =   0.0136054
        k(  131) = (   0.1428571   0.3571429   0.3333333), wk =   0.0136054
        k(  132) = (   0.1428571   0.3571429   0.4166667), wk =   0.0136054
        k(  133) = (   0.1428571   0.3571429  -0.5000000), wk =   0.0068027
        k(  134) = (   0.1428571   0.4285714   0.0000000), wk =   0.0068027
        k(  135) = (   0.1428571   0.4285714   0.0833333), wk =   0.0136054
        k(  136) = (   0.1428571   0.4285714   0.1666667), wk =   0.0136054
        k(  137) = (   0.1428571   0.4285714   0.2500000), wk =   0.0136054
        k(  138) = (   0.1428571   0.4285714   0.3333333), wk =   0.0136054
        k(  139) = (   0.1428571   0.4285714   0.4166667), wk =   0.0136054
        k(  140) = (   0.1428571   0.4285714  -0.5000000), wk =   0.0068027
        k(  141) = (   0.1428571  -0.5000000   0.0000000), wk =   0.0034014
        k(  142) = (   0.1428571  -0.5000000   0.0833333), wk =   0.0068027
        k(  143) = (   0.1428571  -0.5000000   0.1666667), wk =   0.0068027
        k(  144) = (   0.1428571  -0.5000000   0.2500000), wk =   0.0068027
        k(  145) = (   0.1428571  -0.5000000   0.3333333), wk =   0.0068027
        k(  146) = (   0.1428571  -0.5000000   0.4166667), wk =   0.0068027
        k(  147) = (   0.1428571  -0.5000000  -0.5000000), wk =   0.0034014
        k(  148) = (   0.2142857   0.2142857   0.0000000), wk =   0.0034014
        k(  149) = (   0.2142857   0.2142857   0.0833333), wk =   0.0068027
        k(  150) = (   0.2142857   0.2142857   0.1666667), wk =   0.0068027
        k(  151) = (   0.2142857   0.2142857   0.2500000), wk =   0.0068027
        k(  152) = (   0.2142857   0.2142857   0.3333333), wk =   0.0068027
        k(  153) = (   0.2142857   0.2142857   0.4166667), wk =   0.0068027
        k(  154) = (   0.2142857   0.2142857  -0.5000000), wk =   0.0034014
        k(  155) = (   0.2142857   0.2857143   0.0000000), wk =   0.0068027
        k(  156) = (   0.2142857   0.2857143   0.0833333), wk =   0.0136054
        k(  157) = (   0.2142857   0.2857143   0.1666667), wk =   0.0136054
        k(  158) = (   0.2142857   0.2857143   0.2500000), wk =   0.0136054
        k(  159) = (   0.2142857   0.2857143   0.3333333), wk =   0.0136054
        k(  160) = (   0.2142857   0.2857143   0.4166667), wk =   0.0136054
        k(  161) = (   0.2142857   0.2857143  -0.5000000), wk =   0.0068027
        k(  162) = (   0.2142857   0.3571429   0.0000000), wk =   0.0068027
        k(  163) = (   0.2142857   0.3571429   0.0833333), wk =   0.0136054
        k(  164) = (   0.2142857   0.3571429   0.1666667), wk =   0.0136054
        k(  165) = (   0.2142857   0.3571429   0.2500000), wk =   0.0136054
        k(  166) = (   0.2142857   0.3571429   0.3333333), wk =   0.0136054
        k(  167) = (   0.2142857   0.3571429   0.4166667), wk =   0.0136054
        k(  168) = (   0.2142857   0.3571429  -0.5000000), wk =   0.0068027
        k(  169) = (   0.2142857   0.4285714   0.0000000), wk =   0.0068027
        k(  170) = (   0.2142857   0.4285714   0.0833333), wk =   0.0136054
        k(  171) = (   0.2142857   0.4285714   0.1666667), wk =   0.0136054
        k(  172) = (   0.2142857   0.4285714   0.2500000), wk =   0.0136054
        k(  173) = (   0.2142857   0.4285714   0.3333333), wk =   0.0136054
        k(  174) = (   0.2142857   0.4285714   0.4166667), wk =   0.0136054
        k(  175) = (   0.2142857   0.4285714  -0.5000000), wk =   0.0068027
        k(  176) = (   0.2142857  -0.5000000   0.0000000), wk =   0.0034014
        k(  177) = (   0.2142857  -0.5000000   0.0833333), wk =   0.0068027
        k(  178) = (   0.2142857  -0.5000000   0.1666667), wk =   0.0068027
        k(  179) = (   0.2142857  -0.5000000   0.2500000), wk =   0.0068027
        k(  180) = (   0.2142857  -0.5000000   0.3333333), wk =   0.0068027
        k(  181) = (   0.2142857  -0.5000000   0.4166667), wk =   0.0068027
        k(  182) = (   0.2142857  -0.5000000  -0.5000000), wk =   0.0034014
        k(  183) = (   0.2857143   0.2857143   0.0000000), wk =   0.0034014
        k(  184) = (   0.2857143   0.2857143   0.0833333), wk =   0.0068027
        k(  185) = (   0.2857143   0.2857143   0.1666667), wk =   0.0068027
        k(  186) = (   0.2857143   0.2857143   0.2500000), wk =   0.0068027
        k(  187) = (   0.2857143   0.2857143   0.3333333), wk =   0.0068027
        k(  188) = (   0.2857143   0.2857143   0.4166667), wk =   0.0068027
        k(  189) = (   0.2857143   0.2857143  -0.5000000), wk =   0.0034014
        k(  190) = (   0.2857143   0.3571429   0.0000000), wk =   0.0068027
        k(  191) = (   0.2857143   0.3571429   0.0833333), wk =   0.0136054
        k(  192) = (   0.2857143   0.3571429   0.1666667), wk =   0.0136054
        k(  193) = (   0.2857143   0.3571429   0.2500000), wk =   0.0136054
        k(  194) = (   0.2857143   0.3571429   0.3333333), wk =   0.0136054
        k(  195) = (   0.2857143   0.3571429   0.4166667), wk =   0.0136054
        k(  196) = (   0.2857143   0.3571429  -0.5000000), wk =   0.0068027
        k(  197) = (   0.2857143   0.4285714   0.0000000), wk =   0.0068027
        k(  198) = (   0.2857143   0.4285714   0.0833333), wk =   0.0136054
        k(  199) = (   0.2857143   0.4285714   0.1666667), wk =   0.0136054
        k(  200) = (   0.2857143   0.4285714   0.2500000), wk =   0.0136054
        k(  201) = (   0.2857143   0.4285714   0.3333333), wk =   0.0136054
        k(  202) = (   0.2857143   0.4285714   0.4166667), wk =   0.0136054
        k(  203) = (   0.2857143   0.4285714  -0.5000000), wk =   0.0068027
        k(  204) = (   0.2857143  -0.5000000   0.0000000), wk =   0.0034014
        k(  205) = (   0.2857143  -0.5000000   0.0833333), wk =   0.0068027
        k(  206) = (   0.2857143  -0.5000000   0.1666667), wk =   0.0068027
        k(  207) = (   0.2857143  -0.5000000   0.2500000), wk =   0.0068027
        k(  208) = (   0.2857143  -0.5000000   0.3333333), wk =   0.0068027
        k(  209) = (   0.2857143  -0.5000000   0.4166667), wk =   0.0068027
        k(  210) = (   0.2857143  -0.5000000  -0.5000000), wk =   0.0034014
        k(  211) = (   0.3571429   0.3571429   0.0000000), wk =   0.0034014
        k(  212) = (   0.3571429   0.3571429   0.0833333), wk =   0.0068027
        k(  213) = (   0.3571429   0.3571429   0.1666667), wk =   0.0068027
        k(  214) = (   0.3571429   0.3571429   0.2500000), wk =   0.0068027
        k(  215) = (   0.3571429   0.3571429   0.3333333), wk =   0.0068027
        k(  216) = (   0.3571429   0.3571429   0.4166667), wk =   0.0068027
        k(  217) = (   0.3571429   0.3571429  -0.5000000), wk =   0.0034014
        k(  218) = (   0.3571429   0.4285714   0.0000000), wk =   0.0068027
        k(  219) = (   0.3571429   0.4285714   0.0833333), wk =   0.0136054
        k(  220) = (   0.3571429   0.4285714   0.1666667), wk =   0.0136054
        k(  221) = (   0.3571429   0.4285714   0.2500000), wk =   0.0136054
        k(  222) = (   0.3571429   0.4285714   0.3333333), wk =   0.0136054
        k(  223) = (   0.3571429   0.4285714   0.4166667), wk =   0.0136054
        k(  224) = (   0.3571429   0.4285714  -0.5000000), wk =   0.0068027
        k(  225) = (   0.3571429  -0.5000000   0.0000000), wk =   0.0034014
        k(  226) = (   0.3571429  -0.5000000   0.0833333), wk =   0.0068027
        k(  227) = (   0.3571429  -0.5000000   0.1666667), wk =   0.0068027
        k(  228) = (   0.3571429  -0.5000000   0.2500000), wk =   0.0068027
        k(  229) = (   0.3571429  -0.5000000   0.3333333), wk =   0.0068027
        k(  230) = (   0.3571429  -0.5000000   0.4166667), wk =   0.0068027
        k(  231) = (   0.3571429  -0.5000000  -0.5000000), wk =   0.0034014
        k(  232) = (   0.4285714   0.4285714   0.0000000), wk =   0.0034014
        k(  233) = (   0.4285714   0.4285714   0.0833333), wk =   0.0068027
        k(  234) = (   0.4285714   0.4285714   0.1666667), wk =   0.0068027
        k(  235) = (   0.4285714   0.4285714   0.2500000), wk =   0.0068027
        k(  236) = (   0.4285714   0.4285714   0.3333333), wk =   0.0068027
        k(  237) = (   0.4285714   0.4285714   0.4166667), wk =   0.0068027
        k(  238) = (   0.4285714   0.4285714  -0.5000000), wk =   0.0034014
        k(  239) = (   0.4285714  -0.5000000   0.0000000), wk =   0.0034014
        k(  240) = (   0.4285714  -0.5000000   0.0833333), wk =   0.0068027
        k(  241) = (   0.4285714  -0.5000000   0.1666667), wk =   0.0068027
        k(  242) = (   0.4285714  -0.5000000   0.2500000), wk =   0.0068027
        k(  243) = (   0.4285714  -0.5000000   0.3333333), wk =   0.0068027
        k(  244) = (   0.4285714  -0.5000000   0.4166667), wk =   0.0068027
        k(  245) = (   0.4285714  -0.5000000  -0.5000000), wk =   0.0034014
        k(  246) = (  -0.5000000  -0.5000000   0.0000000), wk =   0.0008503
        k(  247) = (  -0.5000000  -0.5000000   0.0833333), wk =   0.0017007
        k(  248) = (  -0.5000000  -0.5000000   0.1666667), wk =   0.0017007
        k(  249) = (  -0.5000000  -0.5000000   0.2500000), wk =   0.0017007
        k(  250) = (  -0.5000000  -0.5000000   0.3333333), wk =   0.0017007
        k(  251) = (  -0.5000000  -0.5000000   0.4166667), wk =   0.0017007
        k(  252) = (  -0.5000000  -0.5000000  -0.5000000), wk =   0.0008503

     Dense  grid:   279757 G-vectors     FFT dimensions: (  80,  80,  96)

     Smooth grid:   109035 G-vectors     FFT dimensions: (  60,  60,  72)

     Dynamical RAM for                 wfc:       0.55 MB

     Dynamical RAM for     wfc (w. buffer):     140.21 MB

     Dynamical RAM for           str. fact:       1.07 MB

     Dynamical RAM for           local pot:       0.00 MB

     Dynamical RAM for          nlocal pot:       0.48 MB

     Dynamical RAM for                qrad:       0.51 MB

     Dynamical RAM for          rho,v,vnew:       2.24 MB

     Dynamical RAM for               rhoin:       0.75 MB

     Dynamical RAM for            rho*nmix:       5.69 MB

     Dynamical RAM for           G-vectors:       1.40 MB

     Dynamical RAM for          h,s,v(r/c):       0.19 MB

     Dynamical RAM for          <psi|beta>:       0.01 MB

     Dynamical RAM for                 psi:       1.11 MB

     Dynamical RAM for                hpsi:       1.11 MB

     Dynamical RAM for      wfcinit/wfcrot:       4.97 MB

     Estimated static dynamical RAM per process >     150.04 MB

     Estimated max dynamical RAM per process >     160.70 MB

     Estimated total dynamical RAM >       1.88 GB

     Initial potential from superposition of free atoms

     starting charge      61.9806, renormalised to      64.0000
     Starting wfcs are  132 randomized atomic wfcs

     total cpu time spent up to now is       58.1 secs

     Self-consistent Calculation

     iteration #  1     ecut=    80.00 Ry     beta= 0.40
     Davidson diagonalization with overlap

---- Real-time Memory Report at c_bands before calling an iterative solver
           193 MiB given to the printing process from OS
             0 MiB allocation reported by mallinfo(arena+hblkhd)
         22406 MiB available memory on the node where the printing process lives
------------------
     ethr =  1.00E-04,  avg # of iterations =  4.0

     total cpu time spent up to now is      109.5 secs

     total energy              =    -276.77320423 Ry
     estimated scf accuracy    <       1.58249815 Ry

     iteration #  2     ecut=    80.00 Ry     beta= 0.40
     Davidson diagonalization with overlap

---- Real-time Memory Report at c_bands before calling an iterative solver
           197 MiB given to the printing process from OS
             0 MiB allocation reported by mallinfo(arena+hblkhd)
         22327 MiB available memory on the node where the printing process lives
------------------
     ethr =  2.47E-03,  avg # of iterations =  2.0

     total cpu time spent up to now is      142.5 secs

     total energy              =    -277.08746780 Ry
     estimated scf accuracy    <       0.09572421 Ry

     iteration #  3     ecut=    80.00 Ry     beta= 0.40
     Davidson diagonalization with overlap

---- Real-time Memory Report at c_bands before calling an iterative solver
           198 MiB given to the printing process from OS
             0 MiB allocation reported by mallinfo(arena+hblkhd)
         22289 MiB available memory on the node where the printing process lives
------------------
     ethr =  1.50E-04,  avg # of iterations =  1.0

     total cpu time spent up to now is      163.6 secs

     total energy              =    -277.09437822 Ry
     estimated scf accuracy    <       0.03258365 Ry

     iteration #  4     ecut=    80.00 Ry     beta= 0.40
     Davidson diagonalization with overlap

---- Real-time Memory Report at c_bands before calling an iterative solver
           198 MiB given to the printing process from OS
             0 MiB allocation reported by mallinfo(arena+hblkhd)
         22282 MiB available memory on the node where the printing process lives
------------------
     ethr =  5.09E-05,  avg # of iterations =  2.0

     total cpu time spent up to now is      194.2 secs

     total energy              =    -277.09546869 Ry
     estimated scf accuracy    <       0.00489915 Ry

     iteration #  5     ecut=    80.00 Ry     beta= 0.40
     Davidson diagonalization with overlap

---- Real-time Memory Report at c_bands before calling an iterative solver
           198 MiB given to the printing process from OS
             0 MiB allocation reported by mallinfo(arena+hblkhd)
         22469 MiB available memory on the node where the printing process lives
------------------
     ethr =  7.65E-06,  avg # of iterations =  2.0

     total cpu time spent up to now is      229.4 secs

     total energy              =    -277.09688775 Ry
     estimated scf accuracy    <       0.00126857 Ry

     iteration #  6     ecut=    80.00 Ry     beta= 0.40
     Davidson diagonalization with overlap

---- Real-time Memory Report at c_bands before calling an iterative solver
           199 MiB given to the printing process from OS
             0 MiB allocation reported by mallinfo(arena+hblkhd)
         22372 MiB available memory on the node where the printing process lives
------------------
     ethr =  1.98E-06,  avg # of iterations =  2.0

     total cpu time spent up to now is      262.9 secs

     total energy              =    -277.09705544 Ry
     estimated scf accuracy    <       0.00002047 Ry

     iteration #  7     ecut=    80.00 Ry     beta= 0.40
     Davidson diagonalization with overlap

---- Real-time Memory Report at c_bands before calling an iterative solver
           199 MiB given to the printing process from OS
             0 MiB allocation reported by mallinfo(arena+hblkhd)
         22344 MiB available memory on the node where the printing process lives
------------------
     ethr =  3.20E-08,  avg # of iterations =  3.0

     total cpu time spent up to now is      302.9 secs

     total energy              =    -277.09706623 Ry
     estimated scf accuracy    <       0.00001504 Ry

     iteration #  8     ecut=    80.00 Ry     beta= 0.40
     Davidson diagonalization with overlap

---- Real-time Memory Report at c_bands before calling an iterative solver
           199 MiB given to the printing process from OS
             0 MiB allocation reported by mallinfo(arena+hblkhd)
         22289 MiB available memory on the node where the printing process lives
------------------
     ethr =  2.35E-08,  avg # of iterations =  2.0

     total cpu time spent up to now is      337.3 secs

     total energy              =    -277.09706949 Ry
     estimated scf accuracy    <       0.00000008 Ry

     iteration #  9     ecut=    80.00 Ry     beta= 0.40
     Davidson diagonalization with overlap

---- Real-time Memory Report at c_bands before calling an iterative solver
           199 MiB given to the printing process from OS
             0 MiB allocation reported by mallinfo(arena+hblkhd)
         22292 MiB available memory on the node where the printing process lives
------------------
     ethr =  1.28E-10,  avg # of iterations =  3.0

     total cpu time spent up to now is      371.4 secs

     total energy              =    -277.09706950 Ry
     estimated scf accuracy    <       0.00000006 Ry

     iteration # 10     ecut=    80.00 Ry     beta= 0.40
     Davidson diagonalization with overlap

---- Real-time Memory Report at c_bands before calling an iterative solver
           200 MiB given to the printing process from OS
             0 MiB allocation reported by mallinfo(arena+hblkhd)
         22335 MiB available memory on the node where the printing process lives
------------------
     ethr =  8.69E-11,  avg # of iterations =  2.0

     total cpu time spent up to now is      402.4 secs

     total energy              =    -277.09706951 Ry
     estimated scf accuracy    <          3.3E-09 Ry

     iteration # 11     ecut=    80.00 Ry     beta= 0.40
     Davidson diagonalization with overlap

---- Real-time Memory Report at c_bands before calling an iterative solver
           200 MiB given to the printing process from OS
             0 MiB allocation reported by mallinfo(arena+hblkhd)
         22374 MiB available memory on the node where the printing process lives
------------------
     ethr =  5.11E-12,  avg # of iterations =  3.0

     total cpu time spent up to now is      440.1 secs

     total energy              =    -277.09706951 Ry
     estimated scf accuracy    <          1.3E-09 Ry

     iteration # 12     ecut=    80.00 Ry     beta= 0.40
     Davidson diagonalization with overlap

---- Real-time Memory Report at c_bands before calling an iterative solver
           200 MiB given to the printing process from OS
             0 MiB allocation reported by mallinfo(arena+hblkhd)
         22375 MiB available memory on the node where the printing process lives
------------------
     ethr =  2.07E-12,  avg # of iterations =  1.0

     total cpu time spent up to now is      461.7 secs

     total energy              =    -277.09706951 Ry
     estimated scf accuracy    <          8.1E-10 Ry

     iteration # 13     ecut=    80.00 Ry     beta= 0.40
     Davidson diagonalization with overlap

---- Real-time Memory Report at c_bands before calling an iterative solver
           200 MiB given to the printing process from OS
             0 MiB allocation reported by mallinfo(arena+hblkhd)
         22371 MiB available memory on the node where the printing process lives
------------------
     ethr =  1.26E-12,  avg # of iterations =  2.0

     total cpu time spent up to now is      495.9 secs

     End of self-consistent calculation

          k = 0.0000 0.0000 0.0000 ( 13585 PWs)   bands (ev):

   -14.1383 -13.3913 -13.3913 -12.9047 -12.9047 -12.9002 -12.7917 -12.7630
    -2.2371  -0.7615  -0.7615  -0.7372  -0.6530  -0.6530   0.3027   0.5637
     0.8268   0.8819   0.8819   1.2824   1.7083   1.8036   1.8413   1.8413
     1.8520   2.1158   2.3125   2.4264   2.4264   2.5474   2.5474   3.1495

     occupation numbers 
     1.0000   1.0000   1.0000   1.0000   1.0000   1.0000   1.0000   1.0000
     1.0000   1.0000   1.0000   1.0000   1.0000   1.0000   1.0000   1.0000
     1.0000   1.0000   1.0000   1.0000   1.0000   1.0000   1.0000   1.0000
     1.0000   1.0000   1.0000   1.0000   1.0000   1.0000   1.0000   1.0000

          k = 0.0000 0.0000 0.0688 ( 13593 PWs)   bands (ev):

   -14.1314 -13.4808 -13.3044 -12.9062 -12.9008 -12.9000 -12.7936 -12.7685
    -2.2211  -0.9210  -0.7294  -0.6998  -0.6287  -0.5571   0.3075   0.4902
     0.8354   0.8669   0.9228   1.2862   1.6327   1.7302   1.8657   1.8778
     1.9657   2.1253   2.2794   2.3594   2.4651   2.5410   2.5477   3.1416

     occupation numbers 
     1.0000   1.0000   1.0000   1.0000   1.0000   1.0000   1.0000   1.0000
     1.0000   1.0000   1.0000   1.0000   1.0000   1.0000   1.0000   1.0000
     1.0000   1.0000   1.0000   1.0000   1.0000   1.0000   1.0000   1.0000
     1.0000   1.0000   1.0000   1.0000   1.0000   1.0000   1.0000   1.0000

          k = 0.0000 0.0000 0.1377 ( 13589 PWs)   bands (ev):

   -14.1109 -13.5714 -13.2214 -12.9059 -12.8995 -12.8943 -12.7992 -12.7846
    -2.1740  -1.0860  -0.7097  -0.7062  -0.5427  -0.4071   0.3178   0.3366
     0.7943   0.9264   0.9541   1.2982   1.5263   1.6412   1.9044   1.9776
     2.0862   2.1523   2.1911   2.2651   2.4751   2.5250   2.5539   3.1175

     occupation numbers 
     1.0000   1.0000   1.0000   1.0000   1.0000   1.0000   1.0000   1.0000
     1.0000   1.0000   1.0000   1.0000   1.0000   1.0000   1.0000   1.0000
     1.0000   1.0000   1.0000   1.0000   1.0000   1.0000   1.0000   1.0000
     1.0000   1.0000   1.0000   1.0000   1.0000   1.0000   1.0000   1.0000

          k = 0.0000 0.0000 0.2065 ( 13594 PWs)   bands (ev):

   -14.0772 -13.6612 -13.1432 -12.9044 -12.8988 -12.8852 -12.8109 -12.8080
    -2.0977  -1.2523  -0.6810  -0.6687  -0.4825  -0.2449   0.1561   0.3227
     0.7777   0.9677   0.9761   1.3149   1.4260   1.5763   1.9605   2.0153
     2.1253   2.1488   2.1757   2.1927   2.4591   2.4985   2.5864   3.0768

     occupation numbers 
     1.0000   1.0000   1.0000   1.0000   1.0000   1.0000   1.0000   1.0000
     1.0000   1.0000   1.0000   1.0000   1.0000   1.0000   1.0000   1.0000
     1.0000   1.0000   1.0000   1.0000   1.0000   1.0000   1.0000   1.0000
     1.0000   1.0000   1.0000   1.0000   1.0000   1.0000   1.0000   1.0000

          k = 0.0000 0.0000 0.2754 ( 13606 PWs)   bands (ev):

   -14.0312 -13.7482 -13.0705 -12.9023 -12.8983 -12.8738 -12.8467 -12.8195
    -1.9957  -1.4174  -0.6192  -0.6134  -0.4558  -0.0860  -0.0307   0.3074
     0.8063   0.9902   0.9904   1.2725   1.3945   1.5328   1.9086   2.0222
     2.0251   2.1966   2.2099   2.2412   2.4283   2.4608   2.6564   3.0187

     occupation numbers 
     1.0000   1.0000   1.0000   1.0000   1.0000   1.0000   1.0000   1.0000
     1.0000   1.0000   1.0000   1.0000   1.0000   1.0000   1.0000   1.0000
     1.0000   1.0000   1.0000   1.0000   1.0000   1.0000   1.0000   1.0000
     1.0000   1.0000   1.0000   1.0000   1.0000   1.0000   1.0000   1.0000

          k = 0.0000 0.0000 0.3442 ( 13614 PWs)   bands (ev):

   -13.9738 -13.8306 -13.0040 -12.9003 -12.8987 -12.8910 -12.8608 -12.8327
    -1.8720  -1.5783  -0.5626  -0.5093  -0.4671  -0.2105   0.0579   0.2599
     0.8892   0.9986   1.0000   1.1520   1.4366   1.5042   1.8278   1.9045
     2.0903   2.1940   2.2780   2.2929   2.3891   2.4115   2.7525   2.9434

     occupation numbers 
     1.0000   1.0000   1.0000   1.0000   1.0000   1.0000   1.0000   1.0000
     1.0000   1.0000   1.0000   1.0000   1.0000   1.0000   1.0000   1.0000
     1.0000   1.0000   1.0000   1.0000   1.0000   1.0000   1.0000   1.0000
     1.0000   1.0000   1.0000   1.0000   1.0000   1.0000   1.0000   1.0000

          k = 0.0000 0.0000-0.4131 ( 13602 PWs)   bands (ev):

   -13.9064 -13.9064 -12.9441 -12.9441 -12.8989 -12.8989 -12.8468 -12.8468
    -1.7313  -1.7313  -0.5076  -0.5076  -0.3728  -0.3728   0.1758   0.1758
     1.0020   1.0020   1.0140   1.0140   1.4774   1.4774   1.8272   1.8272
     2.1493   2.1493   2.3432   2.3432   2.3504   2.3504   2.8527   2.8527

     occupation numbers 
     1.0000   1.0000   1.0000   1.0000   1.0000   1.0000   1.0000   1.0000
     1.0000   1.0000   1.0000   1.0000   1.0000   1.0000   1.0000   1.0000
     1.0000   1.0000   1.0000   1.0000   1.0000   1.0000   1.0000   1.0000
     1.0000   1.0000   1.0000   1.0000   1.0000   1.0000   1.0000   1.0000

          k = 0.0000 0.0714 0.0000 ( 13599 PWs)   bands (ev):

   -14.1295 -13.3994 -13.3854 -12.9292 -12.9041 -12.8833 -12.7928 -12.7647
    -2.2259  -0.8018  -0.7893  -0.6958  -0.6653  -0.6037   0.2982   0.5440
     0.7869   0.9007   0.9055   1.2990   1.6877   1.7498   1.8534   1.8978
     1.9024   2.1219   2.3075   2.4135   2.4228   2.5141   2.5442   3.1364

     occupation numbers 
     1.0000   1.0000   1.0000   1.0000   1.0000   1.0000   1.0000   1.0000
     1.0000   1.0000   1.0000   1.0000   1.0000   1.0000   1.0000   1.0000
     1.0000   1.0000   1.0000   1.0000   1.0000   1.0000   1.0000   1.0000
     1.0000   1.0000   1.0000   1.0000   1.0000   1.0000   1.0000   1.0000

          k = 0.0000 0.0714 0.0688 ( 13603 PWs)   bands (ev):

   -14.1226 -13.4805 -13.3072 -12.9283 -12.9034 -12.8828 -12.7946 -12.7697
    -2.2100  -0.9263  -0.7638  -0.6943  -0.5885  -0.5534   0.3026   0.4803
     0.7801   0.9103   0.9291   1.3021   1.6270   1.7099   1.8735   1.9091
     1.9950   2.1305   2.2655   2.3611   2.4530   2.5155   2.5425   3.1294

     occupation numbers 
     1.0000   1.0000   1.0000   1.0000   1.0000   1.0000   1.0000   1.0000
     1.0000   1.0000   1.0000   1.0000   1.0000   1.0000   1.0000   1.0000
     1.0000   1.0000   1.0000   1.0000   1.0000   1.0000   1.0000   1.0000
     1.0000   1.0000   1.0000   1.0000   1.0000   1.0000   1.0000   1.0000

          k = 0.0000 0.0714 0.1377 ( 13597 PWs)   bands (ev):

   -14.1023 -13.5693 -13.2265 -12.9257 -12.9016 -12.8808 -12.7999 -12.7841
    -2.1630  -1.0846  -0.7601  -0.6652  -0.5274  -0.4058   0.3104   0.3408
     0.7579   0.9343   0.9696   1.3112   1.5282   1.6348   1.9123   1.9897
     2.1045   2.1540   2.1698   2.2719   2.4667   2.5094   2.5488   3.1079

     occupation numbers 
     1.0000   1.0000   1.0000   1.0000   1.0000   1.0000   1.0000   1.0000
     1.0000   1.0000   1.0000   1.0000   1.0000   1.0000   1.0000   1.0000
     1.0000   1.0000   1.0000   1.0000   1.0000   1.0000   1.0000   1.0000
     1.0000   1.0000   1.0000   1.0000   1.0000   1.0000   1.0000   1.0000

          k = 0.0000 0.0714 0.2065 ( 13598 PWs)   bands (ev):

   -14.0689 -13.6577 -13.1508 -12.9228 -12.8995 -12.8773 -12.8083 -12.8067
    -2.0871  -1.2479  -0.7317  -0.6203  -0.4753  -0.2503   0.1691   0.3187
     0.7480   0.9552   1.0011   1.3194   1.4339   1.5742   1.9668   2.0008
     2.1125   2.1645   2.1853   2.1941   2.4524   2.4885   2.5877   3.0709

     occupation numbers 
     1.0000   1.0000   1.0000   1.0000   1.0000   1.0000   1.0000   1.0000
     1.0000   1.0000   1.0000   1.0000   1.0000   1.0000   1.0000   1.0000
     1.0000   1.0000   1.0000   1.0000   1.0000   1.0000   1.0000   1.0000
     1.0000   1.0000   1.0000   1.0000   1.0000   1.0000   1.0000   1.0000

          k = 0.0000 0.0714 0.2754 ( 13617 PWs)   bands (ev):

   -14.0233 -13.7436 -13.0814 -12.9227 -12.8975 -12.8730 -12.8335 -12.8188
    -1.9855  -1.4111  -0.6752  -0.5586  -0.4519  -0.1234   0.0192   0.3051
     0.7777   0.9724   1.0158   1.2640   1.4082   1.5335   1.8902   2.0186
     2.0363   2.2030   2.2147   2.2383   2.4205   2.4543   2.6641   3.0171

     occupation numbers 
     1.0000   1.0000   1.0000   1.0000   1.0000   1.0000   1.0000   1.0000
     1.0000   1.0000   1.0000   1.0000   1.0000   1.0000   1.0000   1.0000
     1.0000   1.0000   1.0000   1.0000   1.0000   1.0000   1.0000   1.0000
     1.0000   1.0000   1.0000   1.0000   1.0000   1.0000   1.0000   1.0000

          k = 0.0000 0.0714 0.3442 ( 13624 PWs)   bands (ev):

   -13.9665 -13.8249 -13.0194 -12.9341 -12.8945 -12.8772 -12.8481 -12.8305
    -1.8625  -1.5707  -0.6009  -0.4942  -0.4476  -0.2067   0.0734   0.2609
     0.8588   0.9852   1.0182   1.1407   1.4455   1.5076   1.8174   1.9036
     2.0977   2.1985   2.2797   2.2871   2.3804   2.4079   2.7612   2.9461

     occupation numbers 
     1.0000   1.0000   1.0000   1.0000   1.0000   1.0000   1.0000   1.0000
     1.0000   1.0000   1.0000   1.0000   1.0000   1.0000   1.0000   1.0000
     1.0000   1.0000   1.0000   1.0000   1.0000   1.0000   1.0000   1.0000
     1.0000   1.0000   1.0000   1.0000   1.0000   1.0000   1.0000   1.0000

          k = 0.0000 0.0714-0.4131 ( 13622 PWs)   bands (ev):

   -13.8998 -13.8998 -12.9678 -12.9678 -12.8884 -12.8884 -12.8418 -12.8418
    -1.7226  -1.7226  -0.5296  -0.5296  -0.3475  -0.3475   0.1814   0.1814
     0.9671   0.9671   1.0288   1.0288   1.4830   1.4830   1.8235   1.8235
     2.1553   2.1553   2.3340   2.3340   2.3506   2.3506   2.8591   2.8591

     occupation numbers 
     1.0000   1.0000   1.0000   1.0000   1.0000   1.0000   1.0000   1.0000
     1.0000   1.0000   1.0000   1.0000   1.0000   1.0000   1.0000   1.0000
     1.0000   1.0000   1.0000   1.0000   1.0000   1.0000   1.0000   1.0000
     1.0000   1.0000   1.0000   1.0000   1.0000   1.0000   1.0000   1.0000

          k = 0.0000 0.1429 0.0000 ( 13604 PWs)   bands (ev):

   -14.1032 -13.4242 -13.3678 -12.9612 -12.9026 -12.8731 -12.7957 -12.7695
    -2.1928  -0.8839  -0.8233  -0.6801  -0.6438  -0.4881   0.2841   0.4905
     0.7160   0.9235   0.9653   1.3447   1.6519   1.6900   1.8940   1.9573
     2.0018   2.1421   2.3000   2.3069   2.4125   2.4941   2.5345   3.0984

     occupation numbers 
     1.0000   1.0000   1.0000   1.0000   1.0000   1.0000   1.0000   1.0000
     1.0000   1.0000   1.0000   1.0000   1.0000   1.0000   1.0000   1.0000
     1.0000   1.0000   1.0000   1.0000   1.0000   1.0000   1.0000   1.0000
     1.0000   1.0000   1.0000   1.0000   1.0000   1.0000   1.0000   1.0000

          k = 0.0000 0.1429 0.0688 ( 13615 PWs)   bands (ev):

   -14.0966 -13.4832 -13.3122 -12.9602 -12.9023 -12.8727 -12.7973 -12.7732
    -2.1771  -0.9605  -0.7873  -0.7289  -0.5393  -0.4742   0.2869   0.4479
     0.7047   0.9220   0.9882   1.3460   1.6093   1.6716   1.9032   1.9634
     2.0608   2.1476   2.2127   2.3610   2.3872   2.4997   2.5346   3.0941

     occupation numbers 
     1.0000   1.0000   1.0000   1.0000   1.0000   1.0000   1.0000   1.0000
     1.0000   1.0000   1.0000   1.0000   1.0000   1.0000   1.0000   1.0000
     1.0000   1.0000   1.0000   1.0000   1.0000   1.0000   1.0000   1.0000
     1.0000   1.0000   1.0000   1.0000   1.0000   1.0000   1.0000   1.0000

          k = 0.0000 0.1429 0.1377 ( 13602 PWs)   bands (ev):

   -14.0768 -13.5651 -13.2402 -12.9581 -12.9018 -12.8716 -12.8019 -12.7835
    -2.1308  -1.0925  -0.7872  -0.6872  -0.4492  -0.3939   0.2834   0.3498
     0.6836   0.9264   1.0271   1.3466   1.5271   1.6200   1.9332   2.0030
     2.1052   2.1460   2.1742   2.2841   2.4241   2.4958   2.5455   3.0801

     occupation numbers 
     1.0000   1.0000   1.0000   1.0000   1.0000   1.0000   1.0000   1.0000
     1.0000   1.0000   1.0000   1.0000   1.0000   1.0000   1.0000   1.0000
     1.0000   1.0000   1.0000   1.0000   1.0000   1.0000   1.0000   1.0000
     1.0000   1.0000   1.0000   1.0000   1.0000   1.0000   1.0000   1.0000

          k = 0.0000 0.1429 0.2065 ( 13615 PWs)   bands (ev):

   -14.0444 -13.6486 -13.1725 -12.9577 -12.9005 -12.8696 -12.8088 -12.7989
    -2.0560  -1.2421  -0.7663  -0.6235  -0.4110  -0.2593   0.1865   0.3151
     0.6746   0.9375   1.0556   1.3262   1.4523   1.5693   1.9293   2.0019
     2.0936   2.1887   2.2029   2.2035   2.4294   2.4757   2.5975   3.0537

     occupation numbers 
     1.0000   1.0000   1.0000   1.0000   1.0000   1.0000   1.0000   1.0000
     1.0000   1.0000   1.0000   1.0000   1.0000   1.0000   1.0000   1.0000
     1.0000   1.0000   1.0000   1.0000   1.0000   1.0000   1.0000   1.0000
     1.0000   1.0000   1.0000   1.0000   1.0000   1.0000   1.0000   1.0000

          k = 0.0000 0.1429 0.2754 ( 13630 PWs)   bands (ev):

   -14.0001 -13.7305 -13.1113 -12.9640 -12.8966 -12.8678 -12.8169 -12.8156
    -1.9561  -1.3970  -0.7139  -0.5625  -0.3886  -0.1633   0.0824   0.3023
     0.7005   0.9519   1.0659   1.2386   1.4382   1.5349   1.8392   2.0122
     2.0621   2.2040   2.2211   2.2421   2.4032   2.4426   2.6862   3.0117

     occupation numbers 
     1.0000   1.0000   1.0000   1.0000   1.0000   1.0000   1.0000   1.0000
     1.0000   1.0000   1.0000   1.0000   1.0000   1.0000   1.0000   1.0000
     1.0000   1.0000   1.0000   1.0000   1.0000   1.0000   1.0000   1.0000
     1.0000   1.0000   1.0000   1.0000   1.0000   1.0000   1.0000   1.0000

          k = 0.0000 0.1429 0.3442 ( 13653 PWs)   bands (ev):

   -13.9451 -13.8085 -13.0579 -12.9824 -12.8885 -12.8695 -12.8277 -12.8246
    -1.8354  -1.5509  -0.6401  -0.5306  -0.3664  -0.2028   0.1092   0.2645
     0.7765   0.9552   1.0609   1.1171   1.4636   1.5142   1.7904   1.8999
     2.1178   2.2061   2.2639   2.2868   2.3658   2.3994   2.7843   2.9524

     occupation numbers 
     1.0000   1.0000   1.0000   1.0000   1.0000   1.0000   1.0000   1.0000
     1.0000   1.0000   1.0000   1.0000   1.0000   1.0000   1.0000   1.0000
     1.0000   1.0000   1.0000   1.0000   1.0000   1.0000   1.0000   1.0000
     1.0000   1.0000   1.0000   1.0000   1.0000   1.0000   1.0000   1.0000

          k = 0.0000 0.1429-0.4131 ( 13612 PWs)   bands (ev):

   -13.8807 -13.8807 -13.0142 -13.0142 -12.8778 -12.8778 -12.8296 -12.8296
    -1.6986  -1.6986  -0.5661  -0.5661  -0.2993  -0.2993   0.1955   0.1955
     0.8880   0.8880   1.0573   1.0573   1.4932   1.4932   1.8137   1.8137
     2.1692   2.1692   2.3096   2.3096   2.3528   2.3528   2.8756   2.8756

     occupation numbers 
     1.0000   1.0000   1.0000   1.0000   1.0000   1.0000   1.0000   1.0000
     1.0000   1.0000   1.0000   1.0000   1.0000   1.0000   1.0000   1.0000
     1.0000   1.0000   1.0000   1.0000   1.0000   1.0000   1.0000   1.0000
     1.0000   1.0000   1.0000   1.0000   1.0000   1.0000   1.0000   1.0000

          k = 0.0000 0.2143 0.0000 ( 13622 PWs)   bands (ev):

   -14.0605 -13.4665 -13.3396 -12.9959 -12.9001 -12.8706 -12.7999 -12.7768
    -2.1387  -1.0314  -0.8168  -0.6871  -0.5629  -0.3479   0.2603   0.4154
     0.6450   0.9533   1.0376   1.4100   1.6119   1.6293   1.9409   1.9898
     2.0948   2.1010   2.2023   2.3124   2.4026   2.5093   2.5187   3.0405

     occupation numbers 
     1.0000   1.0000   1.0000   1.0000   1.0000   1.0000   1.0000   1.0000
     1.0000   1.0000   1.0000   1.0000   1.0000   1.0000   1.0000   1.0000
     1.0000   1.0000   1.0000   1.0000   1.0000   1.0000   1.0000   1.0000
     1.0000   1.0000   1.0000   1.0000   1.0000   1.0000   1.0000   1.0000

          k = 0.0000 0.2143 0.0688 ( 13620 PWs)   bands (ev):

   -14.0542 -13.5003 -13.3100 -12.9956 -12.9005 -12.8699 -12.8012 -12.7788
    -2.1235  -1.0628  -0.7947  -0.7236  -0.5003  -0.3366   0.2593   0.3930
     0.6310   0.9476   1.0533   1.4097   1.5775   1.6265   1.9372   1.9859
     2.0643   2.1362   2.1994   2.3424   2.3790   2.5015   2.5276   3.0405

     occupation numbers 
     1.0000   1.0000   1.0000   1.0000   1.0000   1.0000   1.0000   1.0000
     1.0000   1.0000   1.0000   1.0000   1.0000   1.0000   1.0000   1.0000
     1.0000   1.0000   1.0000   1.0000   1.0000   1.0000   1.0000   1.0000
     1.0000   1.0000   1.0000   1.0000   1.0000   1.0000   1.0000   1.0000

          k = 0.0000 0.2143 0.1377 ( 13610 PWs)   bands (ev):

   -14.0354 -13.5656 -13.2570 -12.9960 -12.9009 -12.8678 -12.8046 -12.7845
    -2.0786  -1.1439  -0.7844  -0.7102  -0.3993  -0.3034   0.2409   0.3455
     0.6022   0.9418   1.0836   1.3963   1.5154   1.5960   1.9077   1.9910
     2.0478   2.1812   2.2073   2.2867   2.4186   2.4876   2.5495   3.0376

     occupation numbers 
     1.0000   1.0000   1.0000   1.0000   1.0000   1.0000   1.0000   1.0000
     1.0000   1.0000   1.0000   1.0000   1.0000   1.0000   1.0000   1.0000
     1.0000   1.0000   1.0000   1.0000   1.0000   1.0000   1.0000   1.0000
     1.0000   1.0000   1.0000   1.0000   1.0000   1.0000   1.0000   1.0000

          k = 0.0000 0.2143 0.2065 ( 13623 PWs)   bands (ev):

   -14.0047 -13.6383 -13.2033 -13.0010 -12.8991 -12.8649 -12.8093 -12.7931
    -2.0063  -1.2577  -0.7741  -0.6457  -0.3211  -0.2440   0.1736   0.3221
     0.5825   0.9433   1.1097   1.3270   1.4744   1.5581   1.8350   2.0261
     2.0659   2.1803   2.2172   2.2350   2.4343   2.4632   2.6195   3.0263

     occupation numbers 
     1.0000   1.0000   1.0000   1.0000   1.0000   1.0000   1.0000   1.0000
     1.0000   1.0000   1.0000   1.0000   1.0000   1.0000   1.0000   1.0000
     1.0000   1.0000   1.0000   1.0000   1.0000   1.0000   1.0000   1.0000
     1.0000   1.0000   1.0000   1.0000   1.0000   1.0000   1.0000   1.0000

          k = 0.0000 0.2143 0.2754 ( 13634 PWs)   bands (ev):

   -13.9629 -13.7121 -13.1534 -13.0145 -12.8927 -12.8628 -12.8141 -12.8032
    -1.9101  -1.3895  -0.7289  -0.5864  -0.2900  -0.1869   0.1142   0.3075
     0.5968   0.9437   1.1196   1.2115   1.4634   1.5345   1.7745   1.9987
     2.0857   2.1709   2.2233   2.2599   2.4151   2.4274   2.7180   3.0009

     occupation numbers 
     1.0000   1.0000   1.0000   1.0000   1.0000   1.0000   1.0000   1.0000
     1.0000   1.0000   1.0000   1.0000   1.0000   1.0000   1.0000   1.0000
     1.0000   1.0000   1.0000   1.0000   1.0000   1.0000   1.0000   1.0000
     1.0000   1.0000   1.0000   1.0000   1.0000   1.0000   1.0000   1.0000

          k = 0.0000 0.2143 0.3442 ( 13637 PWs)   bands (ev):

   -13.9111 -13.7838 -13.1086 -13.0378 -12.8822 -12.8642 -12.8175 -12.8120
    -1.7947  -1.5281  -0.6598  -0.5595  -0.2793  -0.2021   0.1390   0.2718
     0.6658   0.8994   1.1028   1.1325   1.4721   1.5191   1.7584   1.8916
     2.1320   2.1887   2.2434   2.2847   2.3825   2.3914   2.8137   2.9576

     occupation numbers 
     1.0000   1.0000   1.0000   1.0000   1.0000   1.0000   1.0000   1.0000
     1.0000   1.0000   1.0000   1.0000   1.0000   1.0000   1.0000   1.0000
     1.0000   1.0000   1.0000   1.0000   1.0000   1.0000   1.0000   1.0000
     1.0000   1.0000   1.0000   1.0000   1.0000   1.0000   1.0000   1.0000

          k = 0.0000 0.2143-0.4131 ( 13646 PWs)   bands (ev):

   -13.8508 -13.8508 -13.0697 -13.0697 -12.8713 -12.8713 -12.8171 -12.8171
    -1.6654  -1.6654  -0.5904  -0.5904  -0.2507  -0.2507   0.2097   0.2097
     0.7824   0.7824   1.1048   1.1048   1.4961   1.4961   1.8014   1.8014
     2.1694   2.1694   2.2820   2.2820   2.3679   2.3679   2.8949   2.8949

     occupation numbers 
     1.0000   1.0000   1.0000   1.0000   1.0000   1.0000   1.0000   1.0000
     1.0000   1.0000   1.0000   1.0000   1.0000   1.0000   1.0000   1.0000
     1.0000   1.0000   1.0000   1.0000   1.0000   1.0000   1.0000   1.0000
     1.0000   1.0000   1.0000   1.0000   1.0000   1.0000   1.0000   1.0000

          k = 0.0000 0.2857 0.0000 ( 13622 PWs)   bands (ev):

   -14.0030 -13.5257 -13.3024 -13.0323 -12.8971 -12.8735 -12.8043 -12.7856
    -2.0641  -1.2041  -0.7935  -0.6920  -0.4480  -0.2006   0.2215   0.3371
     0.5927   1.0047   1.0980   1.4834   1.5309   1.5695   1.8799   1.9536
     2.0336   2.1750   2.2496   2.3338   2.4374   2.4985   2.5236   2.9716

     occupation numbers 
     1.0000   1.0000   1.0000   1.0000   1.0000   1.0000   1.0000   1.0000
     1.0000   1.0000   1.0000   1.0000   1.0000   1.0000   1.0000   1.0000
     1.0000   1.0000   1.0000   1.0000   1.0000   1.0000   1.0000   1.0000
     1.0000   1.0000   1.0000   1.0000   1.0000   1.0000   1.0000   1.0000

          k = 0.0000 0.2857 0.0688 ( 13626 PWs)   bands (ev):

   -13.9972 -13.5415 -13.2916 -13.0335 -12.8979 -12.8717 -12.8051 -12.7861
    -2.0497  -1.2161  -0.7786  -0.7035  -0.4210  -0.1918   0.2140   0.3311
     0.5761   1.0011   1.1047   1.4725   1.5154   1.5718   1.8478   1.9674
     2.0213   2.1889   2.2453   2.3331   2.4493   2.4889   2.5298   2.9764

     occupation numbers 
     1.0000   1.0000   1.0000   1.0000   1.0000   1.0000   1.0000   1.0000
     1.0000   1.0000   1.0000   1.0000   1.0000   1.0000   1.0000   1.0000
     1.0000   1.0000   1.0000   1.0000   1.0000   1.0000   1.0000   1.0000
     1.0000   1.0000   1.0000   1.0000   1.0000   1.0000   1.0000   1.0000

          k = 0.0000 0.2857 0.1377 ( 13607 PWs)   bands (ev):

   -13.9800 -13.5819 -13.2653 -13.0384 -12.8981 -12.8674 -12.8070 -12.7879
[...]
     1.0000   1.0000   1.0000   1.0000   1.0000   1.0000   1.0000   1.0000
     1.0000   1.0000   1.0000   1.0000   1.0000   1.0000   1.0000   1.0000

          k =-0.5000-0.5000 0.2065 ( 13656 PWs)   bands (ev):

   -13.4753 -13.4753 -13.3785 -13.3785 -12.9182 -12.9182 -12.8370 -12.8370
    -1.3831  -1.3831  -1.2048  -1.2048   0.4316   0.4316   0.5245   0.5245
     0.8841   0.8841   0.9860   0.9860   1.3926   1.3926   1.5990   1.5990
     2.0930   2.0930   2.1116   2.1116   2.6850   2.6850   2.7859   2.7859

     occupation numbers 
     1.0000   1.0000   1.0000   1.0000   1.0000   1.0000   1.0000   1.0000
     1.0000   1.0000   1.0000   1.0000   1.0000   1.0000   1.0000   1.0000
     1.0000   1.0000   1.0000   1.0000   1.0000   1.0000   1.0000   1.0000
     1.0000   1.0000   1.0000   1.0000   1.0000   1.0000   1.0000   1.0000

          k =-0.5000-0.5000 0.2754 ( 13636 PWs)   bands (ev):

   -13.4600 -13.4600 -13.3912 -13.3912 -12.9086 -12.9086 -12.8508 -12.8508
    -1.3241  -1.3241  -1.1931  -1.1931   0.3971   0.3971   0.4637   0.4637
     0.9365   0.9365   1.0409   1.0409   1.3583   1.3583   1.5284   1.5284
     2.0500   2.0500   2.0646   2.0646   2.7392   2.7392   2.8079   2.8079

     occupation numbers 
     1.0000   1.0000   1.0000   1.0000   1.0000   1.0000   1.0000   1.0000
     1.0000   1.0000   1.0000   1.0000   1.0000   1.0000   1.0000   1.0000
     1.0000   1.0000   1.0000   1.0000   1.0000   1.0000   1.0000   1.0000
     1.0000   1.0000   1.0000   1.0000   1.0000   1.0000   1.0000   1.0000

          k =-0.5000-0.5000 0.3442 ( 13676 PWs)   bands (ev):

   -13.4426 -13.4426 -13.4068 -13.4068 -12.8963 -12.8963 -12.8662 -12.8662
    -1.2667  -1.2667  -1.1968  -1.1968   0.3788   0.3788   0.4143   0.4143
     0.9923   0.9923   1.0645   1.0645   1.3502   1.3502   1.4541   1.4541
     2.0241   2.0241   2.0321   2.0321   2.7809   2.7809   2.8157   2.8157

     occupation numbers 
     1.0000   1.0000   1.0000   1.0000   1.0000   1.0000   1.0000   1.0000
     1.0000   1.0000   1.0000   1.0000   1.0000   1.0000   1.0000   1.0000
     1.0000   1.0000   1.0000   1.0000   1.0000   1.0000   1.0000   1.0000
     1.0000   1.0000   1.0000   1.0000   1.0000   1.0000   1.0000   1.0000

          k =-0.5000-0.5000-0.4131 ( 13672 PWs)   bands (ev):

   -13.4244 -13.4244 -13.4244 -13.4244 -12.8818 -12.8818 -12.8818 -12.8818
    -1.2217  -1.2217  -1.2217  -1.2217   0.3842   0.3842   0.3842   0.3842
     1.0419   1.0419   1.0419   1.0419   1.3877   1.3877   1.3877   1.3877
     2.0180   2.0180   2.0180   2.0180   2.8068   2.8068   2.8068   2.8068

     occupation numbers 
     1.0000   1.0000   1.0000   1.0000   1.0000   1.0000   1.0000   1.0000
     1.0000   1.0000   1.0000   1.0000   1.0000   1.0000   1.0000   1.0000
     1.0000   1.0000   1.0000   1.0000   1.0000   1.0000   1.0000   1.0000
     1.0000   1.0000   1.0000   1.0000   1.0000   1.0000   1.0000   1.0000

     highest occupied level (ev):     3.1219

!    total energy              =    -277.09886554 Ry
     estimated scf accuracy    <          4.1E-14 Ry

     The total energy is the sum of the following terms:
     one-electron contribution =    -114.72565169 Ry
     hartree contribution      =      94.42736830 Ry
     xc contribution           =     -66.58342537 Ry
     ewald contribution        =    -190.21715677 Ry

     convergence has been achieved in   5 iterations

     Forces acting on atoms (cartesian axes, Ry/au):

     atom    1 type  2   force =     0.00000426   -0.00000426    0.00000000
     atom    2 type  2   force =    -0.00000426    0.00000426    0.00000000
     atom    3 type  2   force =    -0.00000426   -0.00000426    0.00000000
     atom    4 type  2   force =     0.00000426    0.00000426    0.00000000
     atom    5 type  1   force =     0.00001801   -0.00001801    0.00000000
     atom    6 type  1   force =    -0.00001801    0.00001801    0.00000000
     atom    7 type  1   force =    -0.00001801   -0.00001801    0.00000000
     atom    8 type  1   force =     0.00001801    0.00001801    0.00000000
     atom    9 type  3   force =     0.00001747   -0.00001851   -0.00000556
     atom   10 type  3   force =    -0.00001747    0.00001851   -0.00000556
     atom   11 type  3   force =    -0.00001851   -0.00001747   -0.00000556
     atom   12 type  3   force =     0.00001851    0.00001747   -0.00000556
     atom   13 type  3   force =     0.00001851   -0.00001747    0.00000556
     atom   14 type  3   force =    -0.00001851    0.00001747    0.00000556
     atom   15 type  3   force =    -0.00001747   -0.00001851    0.00000556
     atom   16 type  3   force =     0.00001747    0.00001851    0.00000556
     The non-local contrib.  to forces
     atom    1 type  2   force =    -0.00178944    0.00178944   -0.00000000
     atom    2 type  2   force =     0.00178944   -0.00178944    0.00000000
     atom    3 type  2   force =     0.00178944    0.00178944    0.00000000
     atom    4 type  2   force =    -0.00178944   -0.00178944   -0.00000000
     atom    5 type  1   force =     0.00326561   -0.00326561    0.00000000
     atom    6 type  1   force =    -0.00326561    0.00326561    0.00000000
     atom    7 type  1   force =    -0.00326561   -0.00326561   -0.00000000
     atom    8 type  1   force =     0.00326561    0.00326561    0.00000000
     atom    9 type  3   force =     0.33063142    0.13334397   -0.46625241
     atom   10 type  3   force =    -0.33063142   -0.13334397   -0.46625241
     atom   11 type  3   force =     0.13334397   -0.33063142   -0.46625241
     atom   12 type  3   force =    -0.13334397    0.33063142   -0.46625241
     atom   13 type  3   force =    -0.13334397   -0.33063142    0.46625241
     atom   14 type  3   force =     0.13334397    0.33063142    0.46625241
     atom   15 type  3   force =    -0.33063142    0.13334397    0.46625241
     atom   16 type  3   force =     0.33063142   -0.13334397    0.46625241
     The ionic contribution  to forces
     atom    1 type  2   force =    -0.12258414    0.12258414    0.00000000
     atom    2 type  2   force =     0.12258414   -0.12258414   -0.00000000
     atom    3 type  2   force =     0.12258414    0.12258414    0.00000000
     atom    4 type  2   force =    -0.12258414   -0.12258414   -0.00000000
     atom    5 type  1   force =     0.08768939   -0.08768939   -0.00000000
     atom    6 type  1   force =    -0.08768939    0.08768939    0.00000000
     atom    7 type  1   force =    -0.08768939   -0.08768939   -0.00000000
     atom    8 type  1   force =     0.08768939    0.08768939   -0.00000000
     atom    9 type  3   force =    -1.38324147   -0.28459553    2.03869188
     atom   10 type  3   force =     1.38324147    0.28459553    2.03869188
     atom   11 type  3   force =    -0.28459553    1.38324147    2.03869188
     atom   12 type  3   force =     0.28459553   -1.38324147    2.03869188
     atom   13 type  3   force =     0.28459553    1.38324147   -2.03869188
     atom   14 type  3   force =    -0.28459553   -1.38324147   -2.03869188
     atom   15 type  3   force =     1.38324147   -0.28459553   -2.03869188
     atom   16 type  3   force =    -1.38324147    0.28459553   -2.03869188
     The local contribution  to forces
     atom    1 type  2   force =     0.12330993   -0.12330993    0.00000000
     atom    2 type  2   force =    -0.12330993    0.12330993    0.00000000
     atom    3 type  2   force =    -0.12330993   -0.12330993   -0.00000000
     atom    4 type  2   force =     0.12330993    0.12330993   -0.00000000
     atom    5 type  1   force =    -0.09093698    0.09093698   -0.00000000
     atom    6 type  1   force =     0.09093698   -0.09093698   -0.00000000
     atom    7 type  1   force =     0.09093698    0.09093698   -0.00000000
     atom    8 type  1   force =    -0.09093698   -0.09093698    0.00000000
     atom    9 type  3   force =     1.05262749    0.15123308   -1.57244508
     atom   10 type  3   force =    -1.05262749   -0.15123308   -1.57244508
     atom   11 type  3   force =     0.15123308   -1.05262749   -1.57244508
     atom   12 type  3   force =    -0.15123308    1.05262749   -1.57244508
     atom   13 type  3   force =    -0.15123308   -1.05262749    1.57244508
     atom   14 type  3   force =     0.15123308    1.05262749    1.57244508
     atom   15 type  3   force =    -1.05262749    0.15123308    1.57244508
     atom   16 type  3   force =     1.05262749   -0.15123308    1.57244508
     The core correction contribution to forces
     atom    1 type  2   force =     0.00106791   -0.00106791    0.00000000
     atom    2 type  2   force =    -0.00106791    0.00106791    0.00000000
     atom    3 type  2   force =    -0.00106791   -0.00106791   -0.00000000
     atom    4 type  2   force =     0.00106791    0.00106791    0.00000000
     atom    5 type  1   force =     0.00000000    0.00000000    0.00000000
     atom    6 type  1   force =     0.00000000    0.00000000    0.00000000
     atom    7 type  1   force =     0.00000000    0.00000000    0.00000000
     atom    8 type  1   force =     0.00000000    0.00000000    0.00000000
     atom    9 type  3   force =     0.00000000    0.00000000    0.00000000
     atom   10 type  3   force =     0.00000000    0.00000000    0.00000000
     atom   11 type  3   force =     0.00000000    0.00000000    0.00000000
     atom   12 type  3   force =     0.00000000    0.00000000    0.00000000
     atom   13 type  3   force =     0.00000000    0.00000000    0.00000000
     atom   14 type  3   force =     0.00000000    0.00000000    0.00000000
     atom   15 type  3   force =     0.00000000    0.00000000    0.00000000
     atom   16 type  3   force =     0.00000000    0.00000000    0.00000000
     The Hubbard contrib.    to forces
     atom    1 type  2   force =     0.00000000    0.00000000    0.00000000
     atom    2 type  2   force =     0.00000000    0.00000000    0.00000000
     atom    3 type  2   force =     0.00000000    0.00000000    0.00000000
     atom    4 type  2   force =     0.00000000    0.00000000    0.00000000
     atom    5 type  1   force =     0.00000000    0.00000000    0.00000000
     atom    6 type  1   force =     0.00000000    0.00000000    0.00000000
     atom    7 type  1   force =     0.00000000    0.00000000    0.00000000
     atom    8 type  1   force =     0.00000000    0.00000000    0.00000000
     atom    9 type  3   force =     0.00000000    0.00000000    0.00000000
     atom   10 type  3   force =     0.00000000    0.00000000    0.00000000
     atom   11 type  3   force =     0.00000000    0.00000000    0.00000000
     atom   12 type  3   force =     0.00000000    0.00000000    0.00000000
     atom   13 type  3   force =     0.00000000    0.00000000    0.00000000
     atom   14 type  3   force =     0.00000000    0.00000000    0.00000000
     atom   15 type  3   force =     0.00000000    0.00000000    0.00000000
     atom   16 type  3   force =     0.00000000    0.00000000    0.00000000
     The SCF correction term to forces
     atom    1 type  2   force =    -0.00000000    0.00000000    0.00000000
     atom    2 type  2   force =     0.00000000   -0.00000000    0.00000000
     atom    3 type  2   force =     0.00000000    0.00000000   -0.00000000
     atom    4 type  2   force =    -0.00000000   -0.00000000   -0.00000000
     atom    5 type  1   force =    -0.00000002    0.00000002   -0.00000000
     atom    6 type  1   force =     0.00000002   -0.00000002   -0.00000000
     atom    7 type  1   force =     0.00000002    0.00000002    0.00000000
     atom    8 type  1   force =    -0.00000002   -0.00000002    0.00000000
     atom    9 type  3   force =     0.00000003   -0.00000002    0.00000004
     atom   10 type  3   force =    -0.00000003    0.00000002    0.00000004
     atom   11 type  3   force =    -0.00000002   -0.00000003    0.00000004
     atom   12 type  3   force =     0.00000002    0.00000003    0.00000004
     atom   13 type  3   force =     0.00000002   -0.00000003   -0.00000004
     atom   14 type  3   force =    -0.00000002    0.00000003   -0.00000004
     atom   15 type  3   force =    -0.00000003   -0.00000002   -0.00000004
     atom   16 type  3   force =     0.00000003    0.00000002   -0.00000004

     Total force =     0.000090     Total SCF correction =     0.000000


     Computing stress (Cartesian axis) and pressure

          total   stress  (Ry/bohr**3)                   (kbar)     P=       44.32
   0.00028806   0.00000000   0.00000000           42.38        0.00        0.00
   0.00000000   0.00028806   0.00000000            0.00       42.38        0.00
   0.00000000   0.00000000   0.00032765            0.00        0.00       48.20

     kinetic stress (kbar)  16697.19      0.00      0.00
                                0.00  16697.19      0.00
                                0.00      0.00  16652.70

     local   stress (kbar) -14298.90      0.00     -0.00
                                0.00 -14298.90      0.00
                               -0.00      0.00 -14395.86

     nonloc. stress (kbar)   4571.66      0.00      0.00
                                0.00   4571.66      0.00
                                0.00      0.00   4595.78

     hartree stress (kbar)   4135.77     -0.00      0.00
                               -0.00   4135.77      0.00
                                0.00      0.00   4044.44

     exc-cor stress (kbar)  -2643.15     -0.00     -0.00
                               -0.00  -2643.15      0.00
                               -0.00      0.00  -2640.38

     corecor stress (kbar)    -78.41     -0.00      0.00
                               -0.00    -78.41      0.00
                                0.00      0.00    -82.38

     ewald   stress (kbar)  -8341.77      0.00      0.00
                                0.00  -8341.77     -0.00
                                0.00     -0.00  -8126.09

     hubbard stress (kbar)      0.00      0.00      0.00
                                0.00      0.00      0.00
                                0.00      0.00      0.00

     DFT-D   stress (kbar)      0.00      0.00      0.00
                                0.00      0.00      0.00
                                0.00      0.00      0.00

     XDM     stress (kbar)      0.00      0.00      0.00
                                0.00      0.00      0.00
                                0.00      0.00      0.00

     dft-nl  stress (kbar)      0.00      0.00      0.00
                                0.00      0.00      0.00
                                0.00      0.00      0.00

     TS-vdW  stress (kbar)      0.00      0.00      0.00
                                0.00      0.00      0.00
                                0.00      0.00      0.00

     MDB     stress (kbar)      0.00      0.00      0.00
                                0.00      0.00      0.00
                                0.00      0.00      0.00

     3D-RISM stress (kbar)      0.00      0.00      0.00
                                0.00      0.00      0.00
                                0.00      0.00      0.00

     Message from routine bfgs:
     history already reset at previous step: exiting
     Energy error            =      1.1E-08 Ry
     Gradient error          =      1.9E-05 Ry/Bohr

     bfgs failed after  16 scf cycles and  15 bfgs steps, convergence not achieved
     (criteria: energy <  1.6E-05 Ry, force <  1.0E-05 Ry/Bohr)

     End of BFGS Geometry Optimization

     Final energy             =    -277.0988655427 Ry

     File ./out/LiAlO2.bfgs deleted, as requested
Begin final coordinates

ATOMIC_POSITIONS (crystal)
Li               0.3135699987        0.6864300013        0.7500000000
Li               0.6864300013        0.3135699987        0.2500000000
Li               0.1864300013        0.1864300013        0.5000000000
Li               0.8135699987        0.8135699987       -0.0000000000
Al               0.6753182476        0.3246817524        0.7500000000
Al               0.3246817524        0.6753182476        0.2500000000
Al               0.8246817524        0.8246817524        0.5000000000
Al               0.1753182476        0.1753182476        0.0000000000
O                0.8347194282        0.2081416467        0.9789758199
O                0.1652805718        0.7918583533        0.4789758199
O                0.7081416467        0.6652805718        0.7289758199
O                0.2918583533        0.3347194282        0.2289758199
O                0.7918583533        0.1652805718        0.5210241801
O                0.2081416467        0.8347194282        0.0210241801
O                0.6652805718        0.7081416467        0.2710241801
O                0.3347194282        0.2918583533        0.7710241801
End final coordinates



     Writing all to output data dir ./out/LiAlO2.save/ :
     XML data file, charge density, pseudopotentials, collected wavefunctions

     init_run     :     53.32s CPU     57.85s WALL (       1 calls)
     electrons    :   3276.09s CPU   4012.96s WALL (      16 calls)
     update_pot   :      0.61s CPU      0.79s WALL (      15 calls)
     forces       :     42.76s CPU     49.73s WALL (      16 calls)
     stress       :    171.54s CPU    196.21s WALL (      16 calls)

     Called by init_run:
     wfcinit      :     52.79s CPU     57.25s WALL (       1 calls)
     wfcinit:atom :      0.30s CPU      0.64s WALL (     252 calls)
     wfcinit:wfcr :     50.52s CPU     54.43s WALL (     252 calls)
     potinit      :      0.22s CPU      0.22s WALL (       1 calls)
     hinit0       :      0.25s CPU      0.29s WALL (       1 calls)

     Called by electrons:
     c_bands      :   3040.50s CPU   3697.10s WALL (     132 calls)
     sum_band     :    230.50s CPU    308.70s WALL (     132 calls)
     v_of_rho     :      4.20s CPU      5.76s WALL (     137 calls)
     v_h          :      0.28s CPU      0.44s WALL (     137 calls)
     v_xc         :      4.88s CPU      6.56s WALL (     169 calls)
     mix_rho      :      0.56s CPU      0.71s WALL (     132 calls)

     Called by c_bands:
     init_us_2    :     23.94s CPU     28.82s WALL (   74844 calls)
     init_us_2:cp :     23.70s CPU     28.62s WALL (   74844 calls)
     cegterg      :   2998.25s CPU   3641.69s WALL (   33264 calls)

     Called by sum_band:
     sum_band:wei :      0.01s CPU      0.01s WALL (     132 calls)
     sum_band:loo :    229.96s CPU    307.96s WALL (     132 calls)
     sum_band:buf :      6.54s CPU      8.20s WALL (   33264 calls)
     sum_band:ini :     11.04s CPU     14.13s WALL (   33264 calls)

     Called by *egterg:
     cdiaghg      :    105.37s CPU    112.67s WALL (   93633 calls)
     cegterg:over :    569.82s CPU    675.78s WALL (   66921 calls)
     cegterg:upda :    202.20s CPU    206.84s WALL (   66921 calls)
     cegterg:last :    348.80s CPU    353.23s WALL (   66299 calls)
     h_psi        :   1551.42s CPU   1983.65s WALL (  100437 calls)
     g_psi        :     10.21s CPU     10.51s WALL (   66921 calls)

     Called by h_psi:
     h_psi:calbec :    206.58s CPU    261.81s WALL (  100437 calls)
     vloc_psi     :   1195.25s CPU   1557.86s WALL (  100437 calls)
     add_vuspsi   :    132.91s CPU    145.27s WALL (  100437 calls)

     General routines
     calbec       :    259.05s CPU    343.66s WALL (  120597 calls)
     fft          :      2.81s CPU      4.14s WALL (    2022 calls)
     ffts         :      0.28s CPU      0.31s WALL (     269 calls)
     fftw         :   1235.98s CPU   1627.62s WALL ( 6761144 calls)
     interpolate  :      0.46s CPU      0.53s WALL (     137 calls)
     davcio       :      0.05s CPU      0.22s WALL (     252 calls)

     Parallel routines

     PWSCF        :  59m 6.20s CPU      1h12m WALL


   This run was terminated on:  21:46: 7  20Aug2024            

=------------------------------------------------------------------------------=
   JOB DONE.
=------------------------------------------------------------------------------=
