# LAMMPS data file written by OVITO Basic 3.10.6

15 atoms
4 atom types

0.0 5.8562102318 xlo xhi
0.0 5.8032999039 ylo yhi
0.0 4.1219637943 zlo zhi
0.0 2.8754359337 2.9016499519 xy xz yz

Masses

1 6.941  # Li
2 58.9332  # Co
3 58.6934  # Ni
4 15.9994  # O

Atoms  # atomic

1 1 2.928105116 0.0 0.0
2 1 4.365823083 1.450824976 2.060981897
3 1 4.365823083 4.352474928 2.060981897
4 2 0.0 0.0 0.0
5 3 1.437717967 1.450824976 2.060981897
6 3 0.0 2.901649952 0.0
7 3 1.437717967 4.352474928 2.060981897
8 4 1.310089466 1.340939505 0.030049116
9 4 2.856700179 2.901649952 2.247129764
10 4 1.310089466 4.462360539 0.030049116
11 4 2.72967412 5.80332896 2.181054628
12 4 6.001972134 2.901620983 1.940909043
13 4 7.421556509 4.242589387 4.091914655
14 4 5.874945812 5.803300077 1.874834031
15 4 7.421556509 7.364010507 4.091914655
