# LAMMPS data file written by OVITO Basic 3.10.6

108 atoms
4 atom types

0.0 6.5888 xlo xhi
0.0 12.1633 ylo yhi
0.0 19.2883 zlo zhi

Masses

1 118.71  # Sn
2 72.64  # Ge
3 22.98977  # Na
4 15.9994  # O

Atoms  # atomic

1 1 1.398011584 6.529989238 7.55329828
2 1 5.190788416 5.633310762 11.73500172
3 1 1.896388416 11.714960762 17.19744828
4 1 4.692411584 0.448339238 2.09085172
5 1 5.190788416 6.529989238 2.09085172
6 1 1.398011584 5.633310762 17.19744828
7 1 4.692411584 11.714960762 11.73500172
8 1 1.896388416 0.448339238 7.55329828
9 2 4.714220512 6.089312879 8.350869485
10 2 1.874579488 6.073987121 10.937430515
11 2 5.168979488 12.155637121 17.995019485
12 2 1.419820512 0.007662879 1.293280515
13 2 1.874579488 6.089312879 1.293280515
14 2 4.714220512 6.073987121 17.995019485
15 2 1.419820512 12.155637121 10.937430515
16 2 5.168979488 0.007662879 8.350869485
17 2 3.2944 1.995267732 4.822075
18 2 3.2944 10.168032268 14.466225
19 2 0.0 4.086382268 14.466225
20 2 0.0 8.076917732 4.822075
21 2 3.086457472 3.636461801 7.326274989
22 2 3.502342528 8.526838199 11.962025011
23 2 0.207942528 2.445188199 16.970424989
24 2 6.380857472 9.718111801 2.317875011
25 2 3.502342528 3.636461801 2.317875011
26 2 3.086457472 8.526838199 16.970424989
27 2 6.380857472 2.445188199 11.962025011
28 2 0.207942528 9.718111801 7.326274989
29 3 3.334657568 2.871025332 10.469110591
30 3 3.254142432 9.292274668 8.819189409
31 3 6.548542432 3.210624668 0.824960591
32 3 0.040257568 8.952675332 18.463339409
33 3 3.254142432 2.871025332 18.463339409
34 3 3.334657568 9.292274668 0.824960591
35 3 0.040257568 3.210624668 8.819189409
36 3 6.548542432 8.952675332 10.469110591
37 3 0.0 0.195099332 4.822075
38 3 0.0 11.968200668 14.466225
39 3 3.2944 5.886550668 14.466225
40 3 3.2944 6.276749332 4.822075
41 3 0.0 4.864711835 4.822075
42 3 0.0 7.298588165 14.466225
43 3 3.2944 1.216938165 14.466225
44 3 3.2944 10.946361835 4.822075
45 4 6.030926304 5.992736277 7.184505984
46 4 0.557873696 6.170563723 12.103794016
47 4 3.852273696 0.088913723 16.828655984
48 4 2.736526304 12.074386277 2.459644016
49 4 0.557873696 5.992736277 2.459644016
50 4 6.030926304 6.170563723 16.828655984
51 4 2.736526304 0.088913723 12.103794016
52 4 3.852273696 12.074386277 7.184505984
53 4 5.180905216 6.691639495 9.94118982
54 4 1.407894784 5.471660505 9.34711018
55 4 4.702294784 11.553310505 0.29703982
56 4 1.886505216 0.609989495 18.99126018
57 4 1.407894784 6.691639495 18.99126018
58 4 5.180905216 5.471660505 0.29703982
59 4 1.886505216 11.553310505 9.34711018
60 4 4.702294784 0.609989495 9.94118982
61 4 3.410824096 7.074661812 7.669413846
62 4 3.177975904 5.088638188 11.618886154
63 4 6.472375904 11.170288188 17.313563846
64 4 0.116424096 0.993011812 1.974736154
65 4 3.177975904 7.074661812 1.974736154
66 4 3.410824096 5.088638188 17.313563846
67 4 0.116424096 11.170288188 11.618886154
68 4 6.472375904 0.993011812 7.669413846
69 4 4.22803296 4.342906265 8.504983002
70 4 2.36076704 7.820393735 10.783316998
71 4 5.65516704 1.738743735 18.149133002
72 4 0.93363296 10.424556265 1.139166998
73 4 2.36076704 4.342906265 1.139166998
74 4 4.22803296 7.820393735 18.149133002
75 4 0.93363296 1.738743735 10.783316998
76 4 5.65516704 10.424556265 8.504983002
77 4 2.316358528 2.368681042 8.28046719
78 4 4.272441472 9.794618958 11.00783281
79 4 0.978041472 3.712968958 17.92461719
80 4 5.610758528 8.450331042 1.36368281
81 4 4.272441472 2.368681042 1.36368281
82 4 2.316358528 9.794618958 17.92461719
83 4 5.610758528 3.712968958 11.00783281
84 4 0.978041472 8.450331042 8.28046719
85 4 1.957334816 4.756944997 6.569980746
86 4 4.631465184 7.406355003 12.718319254
87 4 1.337065184 1.324705003 16.214130746
88 4 5.251734816 10.838594997 3.074169254
89 4 4.631465184 4.756944997 3.074169254
90 4 1.957334816 7.406355003 16.214130746
91 4 5.251734816 1.324705003 12.718319254
92 4 1.337065184 10.838594997 6.569980746
93 4 4.135262656 3.044838889 6.010620046
94 4 2.453537344 9.118461111 13.277679954
95 4 5.747937344 3.036811111 15.654770046
96 4 0.840862656 9.126488889 3.633529954
97 4 2.453537344 3.044838889 3.633529954
98 4 4.135262656 9.118461111 15.654770046
99 4 0.840862656 3.036811111 13.277679954
100 4 5.747937344 9.126488889 6.010620046
101 4 1.970578304 1.102238246 5.54731508
102 4 4.618221696 11.061061754 13.74098492
103 4 1.323821696 4.979411754 15.19146508
104 4 5.264978304 7.183888246 4.09683492
105 4 4.618221696 1.102238246 4.09683492
106 4 1.970578304 11.061061754 15.19146508
107 4 5.264978304 4.979411754 13.74098492
108 4 1.323821696 7.183888246 5.54731508
