### Running on host: gra337.graham.sharcnet

     Program PWSCF v.7.3.1 starts on 10Nov2024 at 22: 9:21 

     This program is part of the open-source Quantum ESPRESSO suite
     for quantum simulation of materials; please cite
         "P. Giannozzi et al., J. Phys.:Condens. Matter 21 395502 (2009);
         "P. Giannozzi et al., J. Phys.:Condens. Matter 29 465901 (2017);
         "P. Giannozzi et al., J. Chem. Phys. 152 154105 (2020);
          URL http://www.quantum-espresso.org", 
     in publications or presentations arising from this work. More details at
     http://www.quantum-espresso.org/quote

     Parallel version (MPI & OpenMP), running on      16 processor cores
     Number of MPI processes:                 4
     Threads/MPI process:                     4

     MPI processes distributed on     1 nodes
     47881 MiB available memory on the printing compute node when the environment starts

     Reading input from LAC_scf_kpts-7.in

     Current dimensions of program PWSCF are:
     Max number of different atomic species (ntypx) = 10
     Max number of k-points (npk) =  40000
     Max angular momentum in pseudopotentials (lmaxx) =  4
     file Li.pbe-tm-gipaw-dc.UPF: wavefunction(s)  2S 2P 3S 3P renormalized
     WARNING: atomic wfc #  3 for atom typeAl has zero norm
     WARNING: atomic wfc #  4 for atom typeAl has zero norm
     Message from routine setup:
     using ibrav=0 with symmetry is DISCOURAGED, use correct ibrav instead

     R & G space division:  proc/nbgrp/npool/nimage =       4
     Subspace diagonalization in iterative solution of the eigenvalue problem:
     a serial algorithm will be used


     Parallelization info
     --------------------
     sticks:   dense  smooth     PW     G-vecs:    dense   smooth      PW
     Min        1940    1294    343               247428   134672   18504
     Max        1941    1295    344               247431   134674   18509
     Sum        7761    5179   1375               989717   538691   74029

     Using Slab Decomposition



     bravais-lattice index     =            0
     lattice parameter (alat)  =      12.2889  a.u.
     unit-cell volume          =    3987.9110 (a.u.)^3
     number of atoms/cell      =           24
     number of atomic types    =            3
     number of electrons       =       128.00
     number of Kohn-Sham states=           64
     kinetic-energy cutoff     =     100.0000  Ry
     charge density cutoff     =     600.0000  Ry
     scf convergence threshold =      1.0E-06
     mixing beta               =       0.4000
     number of iterations used =            8  plain     mixing
     Exchange-correlation=  SLA  PW   PBX  PBC
                           (   1   4   3   4   0   0   0)

     celldm(1)=  12.288889  celldm(2)=   0.000000  celldm(3)=   0.000000
     celldm(4)=   0.000000  celldm(5)=   0.000000  celldm(6)=   0.000000

     crystal axes: (cart. coord. in units of alat)
               a(1) = (  -0.000000  -1.000000  -0.000000 )  
               a(2) = (  -1.075255   0.000000   0.061999 )  
               a(3) = (   0.000000   0.000000  -1.998462 )  

     reciprocal axes: (cart. coord. in units 2 pi/alat)
               b(1) = ( -0.000000 -1.000000 -0.000000 )  
               b(2) = ( -0.930012  0.000000  0.000000 )  
               b(3) = ( -0.028852  0.000000 -0.500385 )  


     PseudoPot. # 1 for Li read from file:
     /home/cgurwell/projects/rrg-ravh011/cgurwell/pseudo/Li.pbe-tm-gipaw-dc.UPF
     MD5 check sum: 258bf1e32d815cbe0990be85d5d6a6e5
     Pseudo is Norm-conserving + core correction, Zval =  1.0
     Generated by new atomic code, or converted to UPF format
     Using radial grid of 1371 points,  1 beta functions with: 
                l(1) =   0

     PseudoPot. # 2 for Al read from file:
     /home/cgurwell/projects/rrg-ravh011/cgurwell/pseudo/Al.pbe-tm-gipaw-dc.UPF
     MD5 check sum: efdf9c81b1c08458edd46fe92d869955
     Pseudo is Norm-conserving, Zval =  3.0
     Generated by new atomic code, or converted to UPF format
     Using radial grid of 1519 points,  2 beta functions with: 
                l(1) =   0
                l(2) =   1

     PseudoPot. # 3 for Cl read from file:
     /home/cgurwell/projects/rrg-ravh011/cgurwell/pseudo/Cl.pbe-tm-gipaw.UPF
     MD5 check sum: 6263502ce953d769893a136fffc16e2a
     Pseudo is Norm-conserving, Zval =  7.0
     Generated by new atomic code, or converted to UPF format
     Using radial grid of 1157 points,  2 beta functions with: 
                l(1) =   0
                l(2) =   1

     atomic species   valence    mass     pseudopotential
     Li                1.00     6.94100     Li( 1.00)
     Al                3.00    26.98154     Al( 1.00)
     Cl                7.00    35.45300     Cl( 1.00)

      4 Sym. Ops., with inversion, found ( 2 have fractional translation)


                                    s                        frac. trans.

      isym =  1     identity                                     

 cryst.   s( 1) = (     1          0          0      )
                  (     0          1          0      )
                  (     0          0          1      )

 cart.    s( 1) = (  1.0000000  0.0000000  0.0000000 )
                  (  0.0000000  1.0000000  0.0000000 )
                  (  0.0000000  0.0000000  1.0000000 )


      isym =  2     180 deg rotation - cart. axis [0,1,0]        

 cryst.   s( 2) = (     1          0          0      )    f =( -0.5000000 )
                  (     0         -1          0      )       (  0.0000000 )
                  (     0          0         -1      )       (  0.5000000 )

 cart.    s( 2) = ( -1.0000000  0.0000000  0.0000000 )    f =(  0.0000000 )
                  (  0.0000000  1.0000000  0.0000000 )       (  0.5000000 )
                  ( -0.0000000  0.0000000 -1.0000000 )       ( -0.9992311 )


      isym =  3     inversion                                    

 cryst.   s( 3) = (    -1          0          0      )
                  (     0         -1          0      )
                  (     0          0         -1      )

 cart.    s( 3) = ( -1.0000000  0.0000000  0.0000000 )
                  (  0.0000000 -1.0000000  0.0000000 )
                  ( -0.0000000  0.0000000 -1.0000000 )


      isym =  4     inv. 180 deg rotation - cart. axis [0,1,0]   

 cryst.   s( 4) = (    -1          0          0      )    f =(  0.5000000 )
                  (     0          1          0      )       (  0.0000000 )
                  (     0          0          1      )       ( -0.5000000 )

 cart.    s( 4) = (  1.0000000  0.0000000  0.0000000 )    f =( -0.0000000 )
                  (  0.0000000 -1.0000000  0.0000000 )       ( -0.5000000 )
                  (  0.0000000  0.0000000  1.0000000 )       (  0.9992311 )


   Cartesian axes

     site n.     atom                  positions (alat units)
         1        Li     tau(   1) = (  -0.9056877  -0.4850000  -0.2183702  )
         2        Li     tau(   2) = (  -0.1695678  -0.9850000  -0.7188621  )
         3        Li     tau(   3) = (  -0.1695678  -0.5150000  -1.7180932  )
         4        Li     tau(   4) = (  -0.9056877  -0.0150000  -1.2176013  )
         5        Al     tau(   5) = (  -0.3162326  -0.8217000  -1.1827820  )
         6        Al     tau(   6) = (  -0.7590228  -0.3217000  -1.7529125  )
         7        Al     tau(   7) = (  -0.7590228  -0.1783000  -0.7536814  )
         8        Al     tau(   8) = (  -0.3162326  -0.6783000  -0.1835509  )
         9        Cl     tau(   9) = (  -0.3292432  -0.6832000  -0.8869788  )
        10        Cl     tau(  10) = (  -0.7460122  -0.1832000  -0.0502534  )
        11        Cl     tau(  11) = (  -0.7460122  -0.3168000  -1.0494846  )
        12        Cl     tau(  12) = (  -0.3292432  -0.8168000  -1.8862100  )
        13        Cl     tau(  13) = (  -0.2058039  -0.1281000  -1.1300747  )
        14        Cl     tau(  14) = (  -0.8694515  -0.6281000  -1.8056198  )
        15        Cl     tau(  15) = (  -0.8694515  -0.8719000  -0.8063887  )
        16        Cl     tau(  16) = (  -0.2058039  -0.3719000  -0.1308436  )
        17        Cl     tau(  17) = (  -0.0801065  -0.6812000  -1.3666060  )
        18        Cl     tau(  18) = (  -0.9951489  -0.1812000  -1.5690886  )
        19        Cl     tau(  19) = (  -0.9951489  -0.3188000  -0.5698574  )
        20        Cl     tau(  20) = (  -0.0801065  -0.8188000  -0.3673748  )
        21        Cl     tau(  21) = (  -0.6024656  -0.8140000  -1.3383055  )
        22        Cl     tau(  22) = (  -0.4727898  -0.3140000  -1.5973890  )
        23        Cl     tau(  23) = (  -0.4727898  -0.1860000  -0.5981579  )
        24        Cl     tau(  24) = (  -0.6024656  -0.6860000  -0.3390744  )

   Crystallographic axes

     site n.     atom                  positions (cryst. coord.)
         1        Li     tau(   1) = (  0.4850000  0.8423000  0.1354000  )
         2        Li     tau(   2) = (  0.9850000  0.1577000  0.3646000  )
         3        Li     tau(   3) = (  0.5150000  0.1577000  0.8646000  )
         4        Li     tau(   4) = (  0.0150000  0.8423000  0.6354000  )
         5        Al     tau(   5) = (  0.8217000  0.2941000  0.6009700  )
         6        Al     tau(   6) = (  0.3217000  0.7059000  0.8990300  )
         7        Al     tau(   7) = (  0.1783000  0.7059000  0.3990300  )
         8        Al     tau(   8) = (  0.6783000  0.2941000  0.1009700  )
         9        Cl     tau(   9) = (  0.6832000  0.3062000  0.4533300  )
        10        Cl     tau(  10) = (  0.1832000  0.6938000  0.0466700  )
        11        Cl     tau(  11) = (  0.3168000  0.6938000  0.5466700  )
        12        Cl     tau(  12) = (  0.8168000  0.3062000  0.9533300  )
        13        Cl     tau(  13) = (  0.1281000  0.1914000  0.5714100  )
        14        Cl     tau(  14) = (  0.6281000  0.8086000  0.9285900  )
        15        Cl     tau(  15) = (  0.8719000  0.8086000  0.4285900  )
        16        Cl     tau(  16) = (  0.3719000  0.1914000  0.0714100  )
        17        Cl     tau(  17) = (  0.6812000  0.0745000  0.6861400  )
        18        Cl     tau(  18) = (  0.1812000  0.9255000  0.8138600  )
        19        Cl     tau(  19) = (  0.3188000  0.9255000  0.3138600  )
        20        Cl     tau(  20) = (  0.8188000  0.0745000  0.1861400  )
        21        Cl     tau(  21) = (  0.8140000  0.5603000  0.6870500  )
        22        Cl     tau(  22) = (  0.3140000  0.4397000  0.8129500  )
        23        Cl     tau(  23) = (  0.1860000  0.4397000  0.3129500  )
        24        Cl     tau(  24) = (  0.6860000  0.5603000  0.1870500  )

     number of k points=   100
                       cart. coord. in units 2pi/alat
        k(    1) = (  -0.0000000   0.0000000   0.0000000), wk =   0.0058309
        k(    2) = (  -0.0041217   0.0000000  -0.0714835), wk =   0.0116618
        k(    3) = (  -0.0082434   0.0000000  -0.1429671), wk =   0.0116618
        k(    4) = (  -0.0123651   0.0000000  -0.2144506), wk =   0.0116618
        k(    5) = (  -0.1328588   0.0000000   0.0000000), wk =   0.0116618
        k(    6) = (  -0.1369805   0.0000000  -0.0714835), wk =   0.0116618
        k(    7) = (  -0.1411022   0.0000000  -0.1429671), wk =   0.0116618
        k(    8) = (  -0.1452239   0.0000000  -0.2144506), wk =   0.0116618
        k(    9) = (  -0.1204937   0.0000000   0.2144506), wk =   0.0116618
        k(   10) = (  -0.1246154   0.0000000   0.1429671), wk =   0.0116618
        k(   11) = (  -0.1287371   0.0000000   0.0714835), wk =   0.0116618
        k(   12) = (  -0.2657176   0.0000000   0.0000000), wk =   0.0116618
        k(   13) = (  -0.2698393   0.0000000  -0.0714835), wk =   0.0116618
        k(   14) = (  -0.2739610   0.0000000  -0.1429671), wk =   0.0116618
        k(   15) = (  -0.2780827   0.0000000  -0.2144506), wk =   0.0116618
        k(   16) = (  -0.2533524   0.0000000   0.2144506), wk =   0.0116618
        k(   17) = (  -0.2574742   0.0000000   0.1429671), wk =   0.0116618
        k(   18) = (  -0.2615959   0.0000000   0.0714835), wk =   0.0116618
        k(   19) = (  -0.3985764   0.0000000   0.0000000), wk =   0.0116618
        k(   20) = (  -0.4026981   0.0000000  -0.0714835), wk =   0.0116618
        k(   21) = (  -0.4068198   0.0000000  -0.1429671), wk =   0.0116618
        k(   22) = (  -0.4109415   0.0000000  -0.2144506), wk =   0.0116618
        k(   23) = (  -0.3862112   0.0000000   0.2144506), wk =   0.0116618
        k(   24) = (  -0.3903330   0.0000000   0.1429671), wk =   0.0116618
        k(   25) = (  -0.3944547   0.0000000   0.0714835), wk =   0.0116618
        k(   26) = (  -0.0000000  -0.1428571   0.0000000), wk =   0.0116618
        k(   27) = (  -0.0041217  -0.1428571  -0.0714835), wk =   0.0233236
        k(   28) = (  -0.0082434  -0.1428571  -0.1429671), wk =   0.0233236
        k(   29) = (  -0.0123651  -0.1428571  -0.2144506), wk =   0.0233236
        k(   30) = (  -0.1328588  -0.1428571   0.0000000), wk =   0.0233236
        k(   31) = (  -0.1369805  -0.1428571  -0.0714835), wk =   0.0233236
        k(   32) = (  -0.1411022  -0.1428571  -0.1429671), wk =   0.0233236
        k(   33) = (  -0.1452239  -0.1428571  -0.2144506), wk =   0.0233236
        k(   34) = (  -0.1204937  -0.1428571   0.2144506), wk =   0.0233236
        k(   35) = (  -0.1246154  -0.1428571   0.1429671), wk =   0.0233236
        k(   36) = (  -0.1287371  -0.1428571   0.0714835), wk =   0.0233236
        k(   37) = (  -0.2657176  -0.1428571   0.0000000), wk =   0.0233236
        k(   38) = (  -0.2698393  -0.1428571  -0.0714835), wk =   0.0233236
        k(   39) = (  -0.2739610  -0.1428571  -0.1429671), wk =   0.0233236
        k(   40) = (  -0.2780827  -0.1428571  -0.2144506), wk =   0.0233236
        k(   41) = (  -0.2533524  -0.1428571   0.2144506), wk =   0.0233236
        k(   42) = (  -0.2574742  -0.1428571   0.1429671), wk =   0.0233236
        k(   43) = (  -0.2615959  -0.1428571   0.0714835), wk =   0.0233236
        k(   44) = (  -0.3985764  -0.1428571   0.0000000), wk =   0.0233236
        k(   45) = (  -0.4026981  -0.1428571  -0.0714835), wk =   0.0233236
        k(   46) = (  -0.4068198  -0.1428571  -0.1429671), wk =   0.0233236
        k(   47) = (  -0.4109415  -0.1428571  -0.2144506), wk =   0.0233236
        k(   48) = (  -0.3862112  -0.1428571   0.2144506), wk =   0.0233236
        k(   49) = (  -0.3903330  -0.1428571   0.1429671), wk =   0.0233236
        k(   50) = (  -0.3944547  -0.1428571   0.0714835), wk =   0.0233236
        k(   51) = (  -0.0000000  -0.2857143   0.0000000), wk =   0.0116618
        k(   52) = (  -0.0041217  -0.2857143  -0.0714835), wk =   0.0233236
        k(   53) = (  -0.0082434  -0.2857143  -0.1429671), wk =   0.0233236
        k(   54) = (  -0.0123651  -0.2857143  -0.2144506), wk =   0.0233236
        k(   55) = (  -0.1328588  -0.2857143   0.0000000), wk =   0.0233236
        k(   56) = (  -0.1369805  -0.2857143  -0.0714835), wk =   0.0233236
        k(   57) = (  -0.1411022  -0.2857143  -0.1429671), wk =   0.0233236
        k(   58) = (  -0.1452239  -0.2857143  -0.2144506), wk =   0.0233236
        k(   59) = (  -0.1204937  -0.2857143   0.2144506), wk =   0.0233236
        k(   60) = (  -0.1246154  -0.2857143   0.1429671), wk =   0.0233236
        k(   61) = (  -0.1287371  -0.2857143   0.0714835), wk =   0.0233236
        k(   62) = (  -0.2657176  -0.2857143   0.0000000), wk =   0.0233236
        k(   63) = (  -0.2698393  -0.2857143  -0.0714835), wk =   0.0233236
        k(   64) = (  -0.2739610  -0.2857143  -0.1429671), wk =   0.0233236
        k(   65) = (  -0.2780827  -0.2857143  -0.2144506), wk =   0.0233236
        k(   66) = (  -0.2533524  -0.2857143   0.2144506), wk =   0.0233236
        k(   67) = (  -0.2574742  -0.2857143   0.1429671), wk =   0.0233236
        k(   68) = (  -0.2615959  -0.2857143   0.0714835), wk =   0.0233236
        k(   69) = (  -0.3985764  -0.2857143   0.0000000), wk =   0.0233236
        k(   70) = (  -0.4026981  -0.2857143  -0.0714835), wk =   0.0233236
        k(   71) = (  -0.4068198  -0.2857143  -0.1429671), wk =   0.0233236
        k(   72) = (  -0.4109415  -0.2857143  -0.2144506), wk =   0.0233236
        k(   73) = (  -0.3862112  -0.2857143   0.2144506), wk =   0.0233236
        k(   74) = (  -0.3903330  -0.2857143   0.1429671), wk =   0.0233236
        k(   75) = (  -0.3944547  -0.2857143   0.0714835), wk =   0.0233236
        k(   76) = (  -0.0000000  -0.4285714   0.0000000), wk =   0.0116618
        k(   77) = (  -0.0041217  -0.4285714  -0.0714835), wk =   0.0233236
        k(   78) = (  -0.0082434  -0.4285714  -0.1429671), wk =   0.0233236
        k(   79) = (  -0.0123651  -0.4285714  -0.2144506), wk =   0.0233236
        k(   80) = (  -0.1328588  -0.4285714   0.0000000), wk =   0.0233236
        k(   81) = (  -0.1369805  -0.4285714  -0.0714835), wk =   0.0233236
        k(   82) = (  -0.1411022  -0.4285714  -0.1429671), wk =   0.0233236
        k(   83) = (  -0.1452239  -0.4285714  -0.2144506), wk =   0.0233236
        k(   84) = (  -0.1204937  -0.4285714   0.2144506), wk =   0.0233236
        k(   85) = (  -0.1246154  -0.4285714   0.1429671), wk =   0.0233236
        k(   86) = (  -0.1287371  -0.4285714   0.0714835), wk =   0.0233236
        k(   87) = (  -0.2657176  -0.4285714   0.0000000), wk =   0.0233236
        k(   88) = (  -0.2698393  -0.4285714  -0.0714835), wk =   0.0233236
        k(   89) = (  -0.2739610  -0.4285714  -0.1429671), wk =   0.0233236
        k(   90) = (  -0.2780827  -0.4285714  -0.2144506), wk =   0.0233236
        k(   91) = (  -0.2533524  -0.4285714   0.2144506), wk =   0.0233236
        k(   92) = (  -0.2574742  -0.4285714   0.1429671), wk =   0.0233236
        k(   93) = (  -0.2615959  -0.4285714   0.0714835), wk =   0.0233236
        k(   94) = (  -0.3985764  -0.4285714   0.0000000), wk =   0.0233236
        k(   95) = (  -0.4026981  -0.4285714  -0.0714835), wk =   0.0233236
        k(   96) = (  -0.4068198  -0.4285714  -0.1429671), wk =   0.0233236
        k(   97) = (  -0.4109415  -0.4285714  -0.2144506), wk =   0.0233236
        k(   98) = (  -0.3862112  -0.4285714   0.2144506), wk =   0.0233236
        k(   99) = (  -0.3903330  -0.4285714   0.1429671), wk =   0.0233236
        k(  100) = (  -0.3944547  -0.4285714   0.0714835), wk =   0.0233236

                       cryst. coord.
        k(    1) = (   0.0000000   0.0000000   0.0000000), wk =   0.0058309
        k(    2) = (   0.0000000  -0.0000000   0.1428571), wk =   0.0116618
        k(    3) = (   0.0000000  -0.0000000   0.2857143), wk =   0.0116618
        k(    4) = (   0.0000000  -0.0000000   0.4285714), wk =   0.0116618
        k(    5) = (   0.0000000   0.1428571   0.0000000), wk =   0.0116618
        k(    6) = (   0.0000000   0.1428571   0.1428571), wk =   0.0116618
        k(    7) = (   0.0000000   0.1428571   0.2857143), wk =   0.0116618
        k(    8) = (   0.0000000   0.1428571   0.4285714), wk =   0.0116618
        k(    9) = (   0.0000000   0.1428571  -0.4285714), wk =   0.0116618
        k(   10) = (   0.0000000   0.1428571  -0.2857143), wk =   0.0116618
        k(   11) = (   0.0000000   0.1428571  -0.1428571), wk =   0.0116618
        k(   12) = (   0.0000000   0.2857143   0.0000000), wk =   0.0116618
        k(   13) = (   0.0000000   0.2857143   0.1428571), wk =   0.0116618
        k(   14) = (   0.0000000   0.2857143   0.2857143), wk =   0.0116618
        k(   15) = (   0.0000000   0.2857143   0.4285714), wk =   0.0116618
        k(   16) = (   0.0000000   0.2857143  -0.4285714), wk =   0.0116618
        k(   17) = (   0.0000000   0.2857143  -0.2857143), wk =   0.0116618
        k(   18) = (   0.0000000   0.2857143  -0.1428571), wk =   0.0116618
        k(   19) = (   0.0000000   0.4285714   0.0000000), wk =   0.0116618
        k(   20) = (   0.0000000   0.4285714   0.1428571), wk =   0.0116618
        k(   21) = (   0.0000000   0.4285714   0.2857143), wk =   0.0116618
        k(   22) = (   0.0000000   0.4285714   0.4285714), wk =   0.0116618
        k(   23) = (   0.0000000   0.4285714  -0.4285714), wk =   0.0116618
        k(   24) = (   0.0000000   0.4285714  -0.2857143), wk =   0.0116618
        k(   25) = (   0.0000000   0.4285714  -0.1428571), wk =   0.0116618
        k(   26) = (   0.1428571   0.0000000  -0.0000000), wk =   0.0116618
        k(   27) = (   0.1428571  -0.0000000   0.1428571), wk =   0.0233236
        k(   28) = (   0.1428571  -0.0000000   0.2857143), wk =   0.0233236
        k(   29) = (   0.1428571  -0.0000000   0.4285714), wk =   0.0233236
        k(   30) = (   0.1428571   0.1428571  -0.0000000), wk =   0.0233236
        k(   31) = (   0.1428571   0.1428571   0.1428571), wk =   0.0233236
        k(   32) = (   0.1428571   0.1428571   0.2857143), wk =   0.0233236
        k(   33) = (   0.1428571   0.1428571   0.4285714), wk =   0.0233236
        k(   34) = (   0.1428571   0.1428571  -0.4285714), wk =   0.0233236
        k(   35) = (   0.1428571   0.1428571  -0.2857143), wk =   0.0233236
        k(   36) = (   0.1428571   0.1428571  -0.1428571), wk =   0.0233236
        k(   37) = (   0.1428571   0.2857143  -0.0000000), wk =   0.0233236
        k(   38) = (   0.1428571   0.2857143   0.1428571), wk =   0.0233236
        k(   39) = (   0.1428571   0.2857143   0.2857143), wk =   0.0233236
        k(   40) = (   0.1428571   0.2857143   0.4285714), wk =   0.0233236
        k(   41) = (   0.1428571   0.2857143  -0.4285714), wk =   0.0233236
        k(   42) = (   0.1428571   0.2857143  -0.2857143), wk =   0.0233236
        k(   43) = (   0.1428571   0.2857143  -0.1428571), wk =   0.0233236
        k(   44) = (   0.1428571   0.4285714  -0.0000000), wk =   0.0233236
        k(   45) = (   0.1428571   0.4285714   0.1428571), wk =   0.0233236
        k(   46) = (   0.1428571   0.4285714   0.2857143), wk =   0.0233236
        k(   47) = (   0.1428571   0.4285714   0.4285714), wk =   0.0233236
        k(   48) = (   0.1428571   0.4285714  -0.4285714), wk =   0.0233236
        k(   49) = (   0.1428571   0.4285714  -0.2857143), wk =   0.0233236
        k(   50) = (   0.1428571   0.4285714  -0.1428571), wk =   0.0233236
        k(   51) = (   0.2857143   0.0000000  -0.0000000), wk =   0.0116618
        k(   52) = (   0.2857143  -0.0000000   0.1428571), wk =   0.0233236
        k(   53) = (   0.2857143  -0.0000000   0.2857143), wk =   0.0233236
        k(   54) = (   0.2857143  -0.0000000   0.4285714), wk =   0.0233236
        k(   55) = (   0.2857143   0.1428571  -0.0000000), wk =   0.0233236
        k(   56) = (   0.2857143   0.1428571   0.1428571), wk =   0.0233236
        k(   57) = (   0.2857143   0.1428571   0.2857143), wk =   0.0233236
        k(   58) = (   0.2857143   0.1428571   0.4285714), wk =   0.0233236
        k(   59) = (   0.2857143   0.1428571  -0.4285714), wk =   0.0233236
        k(   60) = (   0.2857143   0.1428571  -0.2857143), wk =   0.0233236
        k(   61) = (   0.2857143   0.1428571  -0.1428571), wk =   0.0233236
        k(   62) = (   0.2857143   0.2857143  -0.0000000), wk =   0.0233236
        k(   63) = (   0.2857143   0.2857143   0.1428571), wk =   0.0233236
        k(   64) = (   0.2857143   0.2857143   0.2857143), wk =   0.0233236
        k(   65) = (   0.2857143   0.2857143   0.4285714), wk =   0.0233236
        k(   66) = (   0.2857143   0.2857143  -0.4285714), wk =   0.0233236
        k(   67) = (   0.2857143   0.2857143  -0.2857143), wk =   0.0233236
        k(   68) = (   0.2857143   0.2857143  -0.1428571), wk =   0.0233236
        k(   69) = (   0.2857143   0.4285714  -0.0000000), wk =   0.0233236
        k(   70) = (   0.2857143   0.4285714   0.1428571), wk =   0.0233236
        k(   71) = (   0.2857143   0.4285714   0.2857143), wk =   0.0233236
        k(   72) = (   0.2857143   0.4285714   0.4285714), wk =   0.0233236
        k(   73) = (   0.2857143   0.4285714  -0.4285714), wk =   0.0233236
        k(   74) = (   0.2857143   0.4285714  -0.2857143), wk =   0.0233236
        k(   75) = (   0.2857143   0.4285714  -0.1428571), wk =   0.0233236
        k(   76) = (   0.4285714   0.0000000  -0.0000000), wk =   0.0116618
        k(   77) = (   0.4285714  -0.0000000   0.1428571), wk =   0.0233236
        k(   78) = (   0.4285714  -0.0000000   0.2857143), wk =   0.0233236
        k(   79) = (   0.4285714  -0.0000000   0.4285714), wk =   0.0233236
        k(   80) = (   0.4285714   0.1428571  -0.0000000), wk =   0.0233236
        k(   81) = (   0.4285714   0.1428571   0.1428571), wk =   0.0233236
        k(   82) = (   0.4285714   0.1428571   0.2857143), wk =   0.0233236
        k(   83) = (   0.4285714   0.1428571   0.4285714), wk =   0.0233236
        k(   84) = (   0.4285714   0.1428571  -0.4285714), wk =   0.0233236
        k(   85) = (   0.4285714   0.1428571  -0.2857143), wk =   0.0233236
        k(   86) = (   0.4285714   0.1428571  -0.1428571), wk =   0.0233236
        k(   87) = (   0.4285714   0.2857143  -0.0000000), wk =   0.0233236
        k(   88) = (   0.4285714   0.2857143   0.1428571), wk =   0.0233236
        k(   89) = (   0.4285714   0.2857143   0.2857143), wk =   0.0233236
        k(   90) = (   0.4285714   0.2857143   0.4285714), wk =   0.0233236
        k(   91) = (   0.4285714   0.2857143  -0.4285714), wk =   0.0233236
        k(   92) = (   0.4285714   0.2857143  -0.2857143), wk =   0.0233236
        k(   93) = (   0.4285714   0.2857143  -0.1428571), wk =   0.0233236
        k(   94) = (   0.4285714   0.4285714  -0.0000000), wk =   0.0233236
        k(   95) = (   0.4285714   0.4285714   0.1428571), wk =   0.0233236
        k(   96) = (   0.4285714   0.4285714   0.2857143), wk =   0.0233236
        k(   97) = (   0.4285714   0.4285714   0.4285714), wk =   0.0233236
        k(   98) = (   0.4285714   0.4285714  -0.4285714), wk =   0.0233236
        k(   99) = (   0.4285714   0.4285714  -0.2857143), wk =   0.0233236
        k(  100) = (   0.4285714   0.4285714  -0.1428571), wk =   0.0233236

     Dense  grid:   989717 G-vectors     FFT dimensions: (  96, 108, 192)

     Smooth grid:   538691 G-vectors     FFT dimensions: (  80,  90, 160)

     Dynamical RAM for                 wfc:      16.44 MB

     Dynamical RAM for     wfc (w. buffer):    1660.48 MB

     Dynamical RAM for           str. fact:      11.33 MB

     Dynamical RAM for           local pot:       0.00 MB

     Dynamical RAM for          nlocal pot:      21.58 MB

     Dynamical RAM for                qrad:       0.51 MB

     Dynamical RAM for          rho,v,vnew:      22.72 MB

     Dynamical RAM for               rhoin:       7.57 MB

     Dynamical RAM for            rho*nmix:      60.41 MB

     Dynamical RAM for           G-vectors:      15.19 MB

     Dynamical RAM for          h,s,v(r/c):       0.75 MB

     Dynamical RAM for          <psi|beta>:       0.08 MB

     Dynamical RAM for                 psi:      32.88 MB

     Dynamical RAM for                hpsi:      32.88 MB

     Dynamical RAM for      wfcinit/wfcrot:     109.95 MB

     Estimated static dynamical RAM per process >       1.73 GB

     Estimated max dynamical RAM per process >       1.90 GB

     Estimated total dynamical RAM >       7.59 GB

     Initial potential from superposition of free atoms

     starting charge     117.3963, renormalised to     128.0000
     Starting wfcs are  212 randomized atomic wfcs

     total cpu time spent up to now is     2034.0 secs

     Self-consistent Calculation

     iteration #  1     ecut=   100.00 Ry     beta= 0.40
     Davidson diagonalization with overlap

---- Real-time Memory Report at c_bands before calling an iterative solver
          2056 MiB given to the printing process from OS
             0 MiB allocation reported by mallinfo(arena+hblkhd)
         41598 MiB available memory on the node where the printing process lives
------------------
     ethr =  1.00E-02,  avg # of iterations =  2.0

     Threshold (ethr) on eigenvalues was too large:
     Diagonalizing with lowered threshold

     Davidson diagonalization with overlap

---- Real-time Memory Report at c_bands before calling an iterative solver
          2056 MiB given to the printing process from OS
             0 MiB allocation reported by mallinfo(arena+hblkhd)
         46101 MiB available memory on the node where the printing process lives
------------------
     ethr =  2.24E-04,  avg # of iterations =  3.0

     total cpu time spent up to now is     5874.9 secs

     total energy              =    -501.67286955 Ry
     estimated scf accuracy    <       0.33869178 Ry

     iteration #  2     ecut=   100.00 Ry     beta= 0.40
     Davidson diagonalization with overlap

---- Real-time Memory Report at c_bands before calling an iterative solver
          2056 MiB given to the printing process from OS
             0 MiB allocation reported by mallinfo(arena+hblkhd)
         45915 MiB available memory on the node where the printing process lives
------------------
     ethr =  2.65E-04,  avg # of iterations =  1.0

     total cpu time spent up to now is     7424.0 secs

     total energy              =    -501.68939601 Ry
     estimated scf accuracy    <       0.08744012 Ry

     iteration #  3     ecut=   100.00 Ry     beta= 0.40
     Davidson diagonalization with overlap

---- Real-time Memory Report at c_bands before calling an iterative solver
          2056 MiB given to the printing process from OS
             0 MiB allocation reported by mallinfo(arena+hblkhd)
         14296 MiB available memory on the node where the printing process lives
------------------
     ethr =  6.83E-05,  avg # of iterations =  2.0

     total cpu time spent up to now is     9554.5 secs

     total energy              =    -501.69901580 Ry
     estimated scf accuracy    <       0.01162702 Ry

     iteration #  4     ecut=   100.00 Ry     beta= 0.40
     Davidson diagonalization with overlap

---- Real-time Memory Report at c_bands before calling an iterative solver
          2060 MiB given to the printing process from OS
             0 MiB allocation reported by mallinfo(arena+hblkhd)
         17619 MiB available memory on the node where the printing process lives
------------------
     ethr =  9.08E-06,  avg # of iterations =  2.0

     total cpu time spent up to now is    11680.2 secs

     total energy              =    -501.70169736 Ry
     estimated scf accuracy    <       0.00516619 Ry

     iteration #  5     ecut=   100.00 Ry     beta= 0.40
     Davidson diagonalization with overlap

---- Real-time Memory Report at c_bands before calling an iterative solver
          2064 MiB given to the printing process from OS
             0 MiB allocation reported by mallinfo(arena+hblkhd)
         17609 MiB available memory on the node where the printing process lives
------------------
     ethr =  4.04E-06,  avg # of iterations =  2.0

     total cpu time spent up to now is    13585.1 secs

     total energy              =    -501.70210249 Ry
     estimated scf accuracy    <       0.00039961 Ry

     iteration #  6     ecut=   100.00 Ry     beta= 0.40
     Davidson diagonalization with overlap

---- Real-time Memory Report at c_bands before calling an iterative solver
          2068 MiB given to the printing process from OS
             0 MiB allocation reported by mallinfo(arena+hblkhd)
         16254 MiB available memory on the node where the printing process lives
------------------
     ethr =  3.12E-07,  avg # of iterations =  3.0

     total cpu time spent up to now is    16017.2 secs

     total energy              =    -501.70226905 Ry
     estimated scf accuracy    <       0.00042254 Ry

     iteration #  7     ecut=   100.00 Ry     beta= 0.40
     Davidson diagonalization with overlap

---- Real-time Memory Report at c_bands before calling an iterative solver
          2072 MiB given to the printing process from OS
             0 MiB allocation reported by mallinfo(arena+hblkhd)
         15063 MiB available memory on the node where the printing process lives
------------------
     ethr =  3.12E-07,  avg # of iterations =  2.0

     total cpu time spent up to now is    18000.7 secs

     total energy              =    -501.70231918 Ry
     estimated scf accuracy    <       0.00001790 Ry

     iteration #  8     ecut=   100.00 Ry     beta= 0.40
     Davidson diagonalization with overlap

---- Real-time Memory Report at c_bands before calling an iterative solver
          2076 MiB given to the printing process from OS
             0 MiB allocation reported by mallinfo(arena+hblkhd)
         14530 MiB available memory on the node where the printing process lives
------------------
     ethr =  1.40E-08,  avg # of iterations =  3.0

     total cpu time spent up to now is    21785.1 secs

     End of self-consistent calculation

          k =-0.0000 0.0000 0.0000 ( 67371 PWs)   bands (ev):

   -13.6808 -13.5200 -13.5035 -13.3667 -12.9884 -12.9863 -12.9377 -12.8986
   -12.8977 -12.8923 -12.8653 -12.8627 -12.7785 -12.7673 -12.7202 -12.7090
    -4.1247  -4.0787  -4.0641  -4.0198  -2.7963  -2.7400  -2.4982  -2.4416
    -2.3757  -2.3676  -2.3194  -2.1870  -2.1397  -2.1309  -2.0972  -1.9274
    -1.6476  -1.5332  -1.5252  -1.4575  -1.3459  -1.3173  -1.2510  -1.1956
    -1.1657  -1.0879  -0.9509  -0.9252  -0.8735  -0.7736  -0.6821  -0.6692
    -0.5299  -0.5280  -0.5227  -0.3700  -0.3543  -0.3345  -0.3303  -0.2546
    -0.1391  -0.1215  -0.0545  -0.0261  -0.0173   0.0416   0.0452   0.0578

     occupation numbers 
     1.0000   1.0000   1.0000   1.0000   1.0000   1.0000   1.0000   1.0000
     1.0000   1.0000   1.0000   1.0000   1.0000   1.0000   1.0000   1.0000
     1.0000   1.0000   1.0000   1.0000   1.0000   1.0000   1.0000   1.0000
     1.0000   1.0000   1.0000   1.0000   1.0000   1.0000   1.0000   1.0000
     1.0000   1.0000   1.0000   1.0000   1.0000   1.0000   1.0000   1.0000
     1.0000   1.0000   1.0000   1.0000   1.0000   1.0000   1.0000   1.0000
     1.0000   1.0000   1.0000   1.0000   1.0000   1.0000   1.0000   1.0000
     1.0000   1.0000   1.0000   1.0000   1.0000   1.0000   1.0000   1.0000

          k =-0.0041 0.0000-0.0715 ( 67349 PWs)   bands (ev):

   -13.6766 -13.5500 -13.4743 -13.3694 -12.9888 -12.9873 -12.9361 -12.9027
   -12.8974 -12.8895 -12.8653 -12.8629 -12.7780 -12.7680 -12.7194 -12.7093
    -4.1237  -4.0866  -4.0560  -4.0203  -2.7934  -2.7429  -2.4950  -2.4348
    -2.3735  -2.3684  -2.3331  -2.1865  -2.1755  -2.1033  -2.0781  -1.9377
    -1.6606  -1.5637  -1.5119  -1.4601  -1.3430  -1.3274  -1.2413  -1.1818
    -1.1646  -1.0471  -0.9583  -0.9115  -0.8775  -0.7879  -0.6761  -0.6631
    -0.5757  -0.5384  -0.4649  -0.3802  -0.3682  -0.3338  -0.3065  -0.2569
    -0.1427  -0.1274  -0.0593  -0.0284  -0.0181   0.0324   0.0467   0.0558

     occupation numbers 
     1.0000   1.0000   1.0000   1.0000   1.0000   1.0000   1.0000   1.0000
     1.0000   1.0000   1.0000   1.0000   1.0000   1.0000   1.0000   1.0000
     1.0000   1.0000   1.0000   1.0000   1.0000   1.0000   1.0000   1.0000
     1.0000   1.0000   1.0000   1.0000   1.0000   1.0000   1.0000   1.0000
     1.0000   1.0000   1.0000   1.0000   1.0000   1.0000   1.0000   1.0000
     1.0000   1.0000   1.0000   1.0000   1.0000   1.0000   1.0000   1.0000
     1.0000   1.0000   1.0000   1.0000   1.0000   1.0000   1.0000   1.0000
     1.0000   1.0000   1.0000   1.0000   1.0000   1.0000   1.0000   1.0000

          k =-0.0082 0.0000-0.1430 ( 67376 PWs)   bands (ev):

   -13.6642 -13.5854 -13.4415 -13.3777 -12.9899 -12.9894 -12.9318 -12.9107
   -12.8944 -12.8875 -12.8651 -12.8635 -12.7766 -12.7698 -12.7172 -12.7104
    -4.1208  -4.0978  -4.0441  -4.0221  -2.7854  -2.7508  -2.4841  -2.4179
    -2.3841  -2.3686  -2.3454  -2.2356  -2.1680  -2.0688  -2.0532  -1.9605
    -1.6847  -1.6256  -1.4837  -1.4589  -1.3450  -1.3415  -1.2253  -1.1734
    -1.1429  -1.0032  -0.9372  -0.8785  -0.8642  -0.8189  -0.7136  -0.6283
    -0.6144  -0.5316  -0.4173  -0.4013  -0.3863  -0.3281  -0.2850  -0.2605
    -0.1477  -0.1436  -0.0625  -0.0395  -0.0182   0.0151   0.0472   0.0491

     occupation numbers 
     1.0000   1.0000   1.0000   1.0000   1.0000   1.0000   1.0000   1.0000
     1.0000   1.0000   1.0000   1.0000   1.0000   1.0000   1.0000   1.0000
     1.0000   1.0000   1.0000   1.0000   1.0000   1.0000   1.0000   1.0000
     1.0000   1.0000   1.0000   1.0000   1.0000   1.0000   1.0000   1.0000
     1.0000   1.0000   1.0000   1.0000   1.0000   1.0000   1.0000   1.0000
     1.0000   1.0000   1.0000   1.0000   1.0000   1.0000   1.0000   1.0000
     1.0000   1.0000   1.0000   1.0000   1.0000   1.0000   1.0000   1.0000
     1.0000   1.0000   1.0000   1.0000   1.0000   1.0000   1.0000   1.0000

          k =-0.0124 0.0000-0.2145 ( 67361 PWs)   bands (ev):

   -13.6442 -13.6174 -13.4136 -13.3923 -12.9908 -12.9908 -12.9259 -12.9187
   -12.8908 -12.8881 -12.8648 -12.8642 -12.7746 -12.7722 -12.7146 -12.7122
    -4.1154  -4.1077  -4.0338  -4.0264  -2.7742  -2.7619  -2.4634  -2.4335
    -2.3752  -2.3653  -2.3369  -2.2963  -2.1318  -2.0913  -2.0084  -1.9807
    -1.6965  -1.6772  -1.4589  -1.4532  -1.3556  -1.3500  -1.2078  -1.1895
    -1.0917  -1.0406  -0.8893  -0.8538  -0.8245  -0.7923  -0.7699  -0.7007
    -0.5451  -0.5028  -0.4559  -0.4545  -0.3332  -0.3072  -0.2944  -0.2735
    -0.1558  -0.1437  -0.0622  -0.0567  -0.0120   0.0005   0.0439   0.0447

     occupation numbers 
     1.0000   1.0000   1.0000   1.0000   1.0000   1.0000   1.0000   1.0000
     1.0000   1.0000   1.0000   1.0000   1.0000   1.0000   1.0000   1.0000
     1.0000   1.0000   1.0000   1.0000   1.0000   1.0000   1.0000   1.0000
     1.0000   1.0000   1.0000   1.0000   1.0000   1.0000   1.0000   1.0000
     1.0000   1.0000   1.0000   1.0000   1.0000   1.0000   1.0000   1.0000
     1.0000   1.0000   1.0000   1.0000   1.0000   1.0000   1.0000   1.0000
     1.0000   1.0000   1.0000   1.0000   1.0000   1.0000   1.0000   1.0000
     1.0000   1.0000   1.0000   1.0000   1.0000   1.0000   1.0000   1.0000

          k =-0.1329 0.0000 0.0000 ( 67393 PWs)   bands (ev):

   -13.6653 -13.5130 -13.4960 -13.3781 -12.9956 -12.9925 -12.9511 -12.9228
   -12.9217 -12.8784 -12.8541 -12.8377 -12.7751 -12.7652 -12.7224 -12.7126
    -4.1055  -4.0628  -4.0374  -4.0049  -2.7823  -2.7217  -2.5250  -2.4800
    -2.3550  -2.3152  -2.2752  -2.1993  -2.1573  -2.1249  -2.0759  -1.9579
    -1.6891  -1.5304  -1.4875  -1.4421  -1.3814  -1.3165  -1.2897  -1.2142
    -1.1413  -1.0696  -0.9793  -0.9059  -0.8241  -0.7853  -0.6977  -0.6445
    -0.6076  -0.5185  -0.4996  -0.3983  -0.3766  -0.3354  -0.3204  -0.2854
    -0.1692  -0.1106  -0.0907  -0.0726  -0.0528   0.0001   0.0659   0.0786

     occupation numbers 
     1.0000   1.0000   1.0000   1.0000   1.0000   1.0000   1.0000   1.0000
     1.0000   1.0000   1.0000   1.0000   1.0000   1.0000   1.0000   1.0000
     1.0000   1.0000   1.0000   1.0000   1.0000   1.0000   1.0000   1.0000
     1.0000   1.0000   1.0000   1.0000   1.0000   1.0000   1.0000   1.0000
     1.0000   1.0000   1.0000   1.0000   1.0000   1.0000   1.0000   1.0000
     1.0000   1.0000   1.0000   1.0000   1.0000   1.0000   1.0000   1.0000
     1.0000   1.0000   1.0000   1.0000   1.0000   1.0000   1.0000   1.0000
     1.0000   1.0000   1.0000   1.0000   1.0000   1.0000   1.0000   1.0000

          k =-0.1370 0.0000-0.0715 ( 67366 PWs)   bands (ev):

   -13.6604 -13.5436 -13.4673 -13.3804 -12.9997 -12.9849 -12.9498 -12.9282
   -12.9280 -12.8730 -12.8547 -12.8358 -12.7748 -12.7675 -12.7189 -12.7149
    -4.1080  -4.0529  -4.0465  -4.0025  -2.7815  -2.7219  -2.5366  -2.4631
    -2.3684  -2.3071  -2.2829  -2.1855  -2.1446  -2.1282  -2.0852  -1.9812
    -1.6985  -1.5136  -1.4404  -1.4299  -1.3902  -1.3662  -1.3068  -1.2189
    -1.1368  -1.0407  -0.9564  -0.8758  -0.8458  -0.7752  -0.7064  -0.6933
    -0.6277  -0.5253  -0.4759  -0.3800  -0.3490  -0.3367  -0.3359  -0.2968
    -0.1473  -0.1335  -0.0941  -0.0683  -0.0467  -0.0048   0.0643   0.0763

     occupation numbers 
     1.0000   1.0000   1.0000   1.0000   1.0000   1.0000   1.0000   1.0000
     1.0000   1.0000   1.0000   1.0000   1.0000   1.0000   1.0000   1.0000
     1.0000   1.0000   1.0000   1.0000   1.0000   1.0000   1.0000   1.0000
     1.0000   1.0000   1.0000   1.0000   1.0000   1.0000   1.0000   1.0000
     1.0000   1.0000   1.0000   1.0000   1.0000   1.0000   1.0000   1.0000
     1.0000   1.0000   1.0000   1.0000   1.0000   1.0000   1.0000   1.0000
     1.0000   1.0000   1.0000   1.0000   1.0000   1.0000   1.0000   1.0000
     1.0000   1.0000   1.0000   1.0000   1.0000   1.0000   1.0000   1.0000

          k =-0.1411 0.0000-0.1430 ( 67338 PWs)   bands (ev):

   -13.6477 -13.5769 -13.4384 -13.3871 -13.0041 -12.9818 -12.9424 -12.9341
   -12.9304 -12.8740 -12.8536 -12.8363 -12.7727 -12.7693 -12.7176 -12.7153
    -4.1078  -4.0641  -4.0350  -4.0014  -2.7761  -2.7291  -2.5339  -2.4352
    -2.3762  -2.3078  -2.3047  -2.1903  -2.1684  -2.0965  -2.0669  -2.0166
    -1.7086  -1.5560  -1.4517  -1.4230  -1.3851  -1.3710  -1.2769  -1.2024
    -1.1255  -1.0016  -0.9074  -0.8558  -0.8493  -0.7928  -0.7402  -0.6797
    -0.6655  -0.5512  -0.4447  -0.3631  -0.3622  -0.3469  -0.3143  -0.2906
    -0.1812  -0.1448  -0.0834  -0.0748  -0.0280  -0.0205   0.0590   0.0725

     occupation numbers 
     1.0000   1.0000   1.0000   1.0000   1.0000   1.0000   1.0000   1.0000
     1.0000   1.0000   1.0000   1.0000   1.0000   1.0000   1.0000   1.0000
     1.0000   1.0000   1.0000   1.0000   1.0000   1.0000   1.0000   1.0000
     1.0000   1.0000   1.0000   1.0000   1.0000   1.0000   1.0000   1.0000
     1.0000   1.0000   1.0000   1.0000   1.0000   1.0000   1.0000   1.0000
     1.0000   1.0000   1.0000   1.0000   1.0000   1.0000   1.0000   1.0000
     1.0000   1.0000   1.0000   1.0000   1.0000   1.0000   1.0000   1.0000
     1.0000   1.0000   1.0000   1.0000   1.0000   1.0000   1.0000   1.0000

          k =-0.1452 0.0000-0.2145 ( 67306 PWs)   bands (ev):

   -13.6277 -13.6071 -13.4149 -13.3993 -13.0078 -12.9826 -12.9391 -12.9305
   -12.9287 -12.8804 -12.8515 -12.8393 -12.7705 -12.7693 -12.7206 -12.7124
    -4.1045  -4.0758  -4.0243  -4.0026  -2.7667  -2.7411  -2.5195  -2.4033
    -2.3830  -2.3312  -2.3127  -2.2344  -2.1352  -2.0979  -2.0547  -2.0242
    -1.7130  -1.6097  -1.4881  -1.4345  -1.3846  -1.3342  -1.2461  -1.1662
    -1.1108  -0.9721  -0.9255  -0.8412  -0.8269  -0.7919  -0.7558  -0.7029
    -0.6284  -0.5583  -0.4694  -0.3981  -0.3597  -0.3239  -0.3127  -0.2529
    -0.2240  -0.1489  -0.0869  -0.0679  -0.0387  -0.0262   0.0618   0.0676

     occupation numbers 
     1.0000   1.0000   1.0000   1.0000   1.0000   1.0000   1.0000   1.0000
     1.0000   1.0000   1.0000   1.0000   1.0000   1.0000   1.0000   1.0000
     1.0000   1.0000   1.0000   1.0000   1.0000   1.0000   1.0000   1.0000
     1.0000   1.0000   1.0000   1.0000   1.0000   1.0000   1.0000   1.0000
     1.0000   1.0000   1.0000   1.0000   1.0000   1.0000   1.0000   1.0000
     1.0000   1.0000   1.0000   1.0000   1.0000   1.0000   1.0000   1.0000
     1.0000   1.0000   1.0000   1.0000   1.0000   1.0000   1.0000   1.0000
     1.0000   1.0000   1.0000   1.0000   1.0000   1.0000   1.0000   1.0000

          k =-0.1205 0.0000 0.2145 ( 67335 PWs)   bands (ev):

   -13.6322 -13.6015 -13.4179 -13.3976 -13.0092 -12.9852 -12.9430 -12.9248
   -12.9164 -12.8901 -12.8488 -12.8438 -12.7715 -12.7659 -12.7233 -12.7107
    -4.0979  -4.0860  -4.0164  -4.0071  -2.7551  -2.7544  -2.5020  -2.4274
    -2.3500  -2.3272  -2.3260  -2.2620  -2.1477  -2.0932  -2.0316  -2.0151
    -1.7005  -1.6497  -1.5177  -1.4464  -1.3796  -1.3114  -1.2263  -1.1260
    -1.0962  -1.0201  -0.9090  -0.8779  -0.8494  -0.7878  -0.7421  -0.6674
    -0.5568  -0.5481  -0.5277  -0.4396  -0.3416  -0.3307  -0.2892  -0.2875
    -0.2044  -0.1525  -0.0875  -0.0572  -0.0492  -0.0405   0.0633   0.0729

     occupation numbers 
     1.0000   1.0000   1.0000   1.0000   1.0000   1.0000   1.0000   1.0000
     1.0000   1.0000   1.0000   1.0000   1.0000   1.0000   1.0000   1.0000
     1.0000   1.0000   1.0000   1.0000   1.0000   1.0000   1.0000   1.0000
     1.0000   1.0000   1.0000   1.0000   1.0000   1.0000   1.0000   1.0000
     1.0000   1.0000   1.0000   1.0000   1.0000   1.0000   1.0000   1.0000
     1.0000   1.0000   1.0000   1.0000   1.0000   1.0000   1.0000   1.0000
     1.0000   1.0000   1.0000   1.0000   1.0000   1.0000   1.0000   1.0000
     1.0000   1.0000   1.0000   1.0000   1.0000   1.0000   1.0000   1.0000

          k =-0.1246 0.0000 0.1430 ( 67354 PWs)   bands (ev):

   -13.6508 -13.5706 -13.4428 -13.3862 -13.0070 -12.9884 -12.9463 -12.9209
   -12.9022 -12.9014 -12.8484 -12.8453 -12.7728 -12.7636 -12.7250 -12.7102
    -4.0943  -4.0883  -4.0148  -4.0113  -2.7681  -2.7408  -2.4917  -2.4657
    -2.3371  -2.3297  -2.2832  -2.2728  -2.1850  -2.0612  -2.0569  -1.9824
    -1.6716  -1.6607  -1.5309  -1.4551  -1.3751  -1.3019  -1.2145  -1.1149
    -1.0947  -1.0768  -0.9605  -0.9056  -0.8371  -0.7775  -0.7235  -0.6153
    -0.6074  -0.5052  -0.4958  -0.4745  -0.3541  -0.3229  -0.3129  -0.2757
    -0.2073  -0.1481  -0.0711  -0.0580  -0.0462  -0.0439   0.0611   0.0806

     occupation numbers 
     1.0000   1.0000   1.0000   1.0000   1.0000   1.0000   1.0000   1.0000
     1.0000   1.0000   1.0000   1.0000   1.0000   1.0000   1.0000   1.0000
     1.0000   1.0000   1.0000   1.0000   1.0000   1.0000   1.0000   1.0000
     1.0000   1.0000   1.0000   1.0000   1.0000   1.0000   1.0000   1.0000
     1.0000   1.0000   1.0000   1.0000   1.0000   1.0000   1.0000   1.0000
     1.0000   1.0000   1.0000   1.0000   1.0000   1.0000   1.0000   1.0000
     1.0000   1.0000   1.0000   1.0000   1.0000   1.0000   1.0000   1.0000
     1.0000   1.0000   1.0000   1.0000   1.0000   1.0000   1.0000   1.0000

          k =-0.1287 0.0000 0.0715 ( 67399 PWs)   bands (ev):

   -13.6620 -13.5371 -13.4728 -13.3800 -13.0010 -12.9919 -12.9492 -12.9199
   -12.9124 -12.8889 -12.8520 -12.8413 -12.7741 -12.7635 -12.7247 -12.7110
    -4.1009  -4.0763  -4.0252  -4.0077  -2.7777  -2.7288  -2.5002  -2.4876
    -2.3356  -2.3261  -2.2863  -2.2116  -2.2025  -2.0928  -2.0559  -1.9597
    -1.6816  -1.5961  -1.5211  -1.4544  -1.3753  -1.3046  -1.2084  -1.1934
    -1.1227  -1.0849  -0.9608  -0.9385  -0.8079  -0.8046  -0.6606  -0.6509
    -0.6073  -0.5202  -0.4844  -0.4480  -0.3526  -0.3425  -0.3124  -0.2758
    -0.2002  -0.1302  -0.0796  -0.0591  -0.0509  -0.0155   0.0629   0.0812

     occupation numbers 
     1.0000   1.0000   1.0000   1.0000   1.0000   1.0000   1.0000   1.0000
     1.0000   1.0000   1.0000   1.0000   1.0000   1.0000   1.0000   1.0000
     1.0000   1.0000   1.0000   1.0000   1.0000   1.0000   1.0000   1.0000
     1.0000   1.0000   1.0000   1.0000   1.0000   1.0000   1.0000   1.0000
     1.0000   1.0000   1.0000   1.0000   1.0000   1.0000   1.0000   1.0000
     1.0000   1.0000   1.0000   1.0000   1.0000   1.0000   1.0000   1.0000
     1.0000   1.0000   1.0000   1.0000   1.0000   1.0000   1.0000   1.0000
     1.0000   1.0000   1.0000   1.0000   1.0000   1.0000   1.0000   1.0000

          k =-0.2657 0.0000 0.0000 ( 67396 PWs)   bands (ev):

   -13.6213 -13.4953 -13.4788 -13.4155 -13.0269 -13.0066 -12.9577 -12.9474
   -12.9376 -12.8899 -12.8299 -12.8139 -12.7654 -12.7609 -12.7270 -12.7223
    -4.0580  -4.0209  -3.9823  -3.9738  -2.7375  -2.6808  -2.5302  -2.5221
    -2.3555  -2.2717  -2.2388  -2.1752  -2.1650  -2.0976  -2.0573  -1.9902
    -1.7409  -1.6039  -1.5065  -1.4924  -1.3817  -1.3210  -1.2320  -1.1469
    -1.1105  -1.0501  -1.0139  -0.8833  -0.8744  -0.8144  -0.6802  -0.6762
    -0.6250  -0.5222  -0.4816  -0.4573  -0.3798  -0.3559  -0.3376  -0.3074
    -0.2617  -0.2245  -0.1398  -0.1075  -0.0604  -0.0146   0.0477   0.0675

     occupation numbers 
     1.0000   1.0000   1.0000   1.0000   1.0000   1.0000   1.0000   1.0000
     1.0000   1.0000   1.0000   1.0000   1.0000   1.0000   1.0000   1.0000
     1.0000   1.0000   1.0000   1.0000   1.0000   1.0000   1.0000   1.0000
     1.0000   1.0000   1.0000   1.0000   1.0000   1.0000   1.0000   1.0000
     1.0000   1.0000   1.0000   1.0000   1.0000   1.0000   1.0000   1.0000
     1.0000   1.0000   1.0000   1.0000   1.0000   1.0000   1.0000   1.0000
     1.0000   1.0000   1.0000   1.0000   1.0000   1.0000   1.0000   1.0000
     1.0000   1.0000   1.0000   1.0000   1.0000   1.0000   1.0000   1.0000

          k =-0.2698 0.0000-0.0715 ( 67364 PWs)   bands (ev):

   -13.6163 -13.5202 -13.4579 -13.4165 -13.0140 -13.0133 -12.9608 -12.9526
   -12.9396 -12.8868 -12.8305 -12.8124 -12.7640 -12.7632 -12.7257 -12.7228
    -4.0625  -4.0097  -3.9937  -3.9686  -2.7377  -2.6840  -2.5300  -2.5084
    -2.3680  -2.2586  -2.2574  -2.1596  -2.1486  -2.0971  -2.0742  -2.0197
    -1.7359  -1.6285  -1.5008  -1.4528  -1.3378  -1.3179  -1.2736  -1.1752
    -1.0831  -1.0410  -0.9936  -0.8869  -0.8532  -0.8153  -0.7221  -0.7122
    -0.6653  -0.5055  -0.4308  -0.4138  -0.3946  -0.3837  -0.3811  -0.3111
    -0.2545  -0.1761  -0.1665  -0.0942  -0.0697   0.0000   0.0398   0.0709

     occupation numbers 
     1.0000   1.0000   1.0000   1.0000   1.0000   1.0000   1.0000   1.0000
     1.0000   1.0000   1.0000   1.0000   1.0000   1.0000   1.0000   1.0000
     1.0000   1.0000   1.0000   1.0000   1.0000   1.0000   1.0000   1.0000
     1.0000   1.0000   1.0000   1.0000   1.0000   1.0000   1.0000   1.0000
     1.0000   1.0000   1.0000   1.0000   1.0000   1.0000   1.0000   1.0000
     1.0000   1.0000   1.0000   1.0000   1.0000   1.0000   1.0000   1.0000
     1.0000   1.0000   1.0000   1.0000   1.0000   1.0000   1.0000   1.0000
     1.0000   1.0000   1.0000   1.0000   1.0000   1.0000   1.0000   1.0000

          k =-0.2740 0.0000-0.1430 ( 67328 PWs)   bands (ev):

   -13.6044 -13.5474 -13.4398 -13.4188 -13.0223 -12.9991 -12.9638 -12.9503
   -12.9436 -12.8886 -12.8316 -12.8143 -12.7637 -12.7604 -12.7293 -12.7191
    -4.0633  -4.0060  -4.0002  -3.9641  -2.7330  -2.6919  -2.5309  -2.4781
    -2.3769  -2.2675  -2.2483  -2.1721  -2.1438  -2.0872  -2.0769  -2.0650
    -1.7227  -1.6607  -1.4979  -1.4454  -1.3278  -1.2960  -1.2810  -1.1830
    -1.0550  -1.0240  -0.9547  -0.8785  -0.8291  -0.7945  -0.7874  -0.7368
    -0.6934  -0.5116  -0.4463  -0.4145  -0.3903  -0.3711  -0.3705  -0.3278
    -0.2488  -0.1861  -0.1312  -0.1070  -0.0793  -0.0036   0.0405   0.0756

     occupation numbers 
     1.0000   1.0000   1.0000   1.0000   1.0000   1.0000   1.0000   1.0000
     1.0000   1.0000   1.0000   1.0000   1.0000   1.0000   1.0000   1.0000
     1.0000   1.0000   1.0000   1.0000   1.0000   1.0000   1.0000   1.0000
     1.0000   1.0000   1.0000   1.0000   1.0000   1.0000   1.0000   1.0000
     1.0000   1.0000   1.0000   1.0000   1.0000   1.0000   1.0000   1.0000
     1.0000   1.0000   1.0000   1.0000   1.0000   1.0000   1.0000   1.0000
     1.0000   1.0000   1.0000   1.0000   1.0000   1.0000   1.0000   1.0000
     1.0000   1.0000   1.0000   1.0000   1.0000   1.0000   1.0000   1.0000

          k =-0.2781 0.0000-0.2145 ( 67347 PWs)   bands (ev):

   -13.5864 -13.5727 -13.4273 -13.4236 -13.0309 -12.9900 -12.9628 -12.9475
   -12.9405 -12.8960 -12.8315 -12.8185 -12.7634 -12.7562 -12.7327 -12.7168
    -4.0604  -4.0184  -3.9928  -3.9616  -2.7234  -2.7020  -2.5306  -2.4504
    -2.3840  -2.2658  -2.2386  -2.2074  -2.1277  -2.1199  -2.0697  -2.0668
    -1.7052  -1.6886  -1.4948  -1.4683  -1.3709  -1.2698  -1.2313  -1.1805
    -1.0861  -0.9523  -0.9359  -0.8800  -0.8336  -0.8158  -0.7538  -0.7127
    -0.7045  -0.5697  -0.4921  -0.4054  -0.3947  -0.3514  -0.3389  -0.3355
    -0.2407  -0.1868  -0.1330  -0.1059  -0.1007  -0.0133   0.0426   0.0814

     occupation numbers 
     1.0000   1.0000   1.0000   1.0000   1.0000   1.0000   1.0000   1.0000
     1.0000   1.0000   1.0000   1.0000   1.0000   1.0000   1.0000   1.0000
     1.0000   1.0000   1.0000   1.0000   1.0000   1.0000   1.0000   1.0000
     1.0000   1.0000   1.0000   1.0000   1.0000   1.0000   1.0000   1.0000
     1.0000   1.0000   1.0000   1.0000   1.0000   1.0000   1.0000   1.0000
     1.0000   1.0000   1.0000   1.0000   1.0000   1.0000   1.0000   1.0000
     1.0000   1.0000   1.0000   1.0000   1.0000   1.0000   1.0000   1.0000
     1.0000   1.0000   1.0000   1.0000   1.0000   1.0000   1.0000   1.0000

          k =-0.2534 0.0000 0.2145 ( 67341 PWs)   bands (ev):

   -13.5939 -13.5634 -13.4325 -13.4200 -13.0376 -12.9898 -12.9553 -12.9504
   -12.9258 -12.9081 -12.8288 -12.8233 -12.7632 -12.7536 -12.7347 -12.7162
    -4.0538  -4.0302  -3.9874  -3.9619  -2.7131  -2.7102  -2.5343  -2.4542
    -2.3638  -2.2536  -2.2443  -2.2268  -2.1742  -2.0871  -2.0766  -2.0387
    -1.7097  -1.6851  -1.4965  -1.4907  -1.4003  -1.2660  -1.1814  -1.1777
    -1.1165  -0.9859  -0.9205  -0.8529  -0.8529  -0.8278  -0.6817  -0.6800
    -0.6437  -0.6405  -0.5318  -0.4386  -0.3718  -0.3633  -0.3370  -0.3151
    -0.2158  -0.1819  -0.1579  -0.1338  -0.0873  -0.0241   0.0462   0.0825

     occupation numbers 
     1.0000   1.0000   1.0000   1.0000   1.0000   1.0000   1.0000   1.0000
     1.0000   1.0000   1.0000   1.0000   1.0000   1.0000   1.0000   1.0000
     1.0000   1.0000   1.0000   1.0000   1.0000   1.0000   1.0000   1.0000
     1.0000   1.0000   1.0000   1.0000   1.0000   1.0000   1.0000   1.0000
     1.0000   1.0000   1.0000   1.0000   1.0000   1.0000   1.0000   1.0000
     1.0000   1.0000   1.0000   1.0000   1.0000   1.0000   1.0000   1.0000
     1.0000   1.0000   1.0000   1.0000   1.0000   1.0000   1.0000   1.0000
     1.0000   1.0000   1.0000   1.0000   1.0000   1.0000   1.0000   1.0000

          k =-0.2575 0.0000 0.1430 ( 67343 PWs)   bands (ev):

   -13.6097 -13.5370 -13.4467 -13.4166 -13.0400 -12.9943 -12.9527 -12.9461
   -12.9226 -12.9104 -12.8272 -12.8240 -12.7638 -12.7543 -12.7340 -12.7171
    -4.0443  -4.0411  -3.9830  -3.9657  -2.7239  -2.6960  -2.5398  -2.4795
    -2.3252  -2.2887  -2.2320  -2.2140  -2.1971  -2.0864  -2.0578  -2.0084
    -1.7254  -1.6570  -1.5132  -1.4934  -1.4141  -1.2843  -1.1934  -1.1265
    -1.1217  -1.0415  -0.9687  -0.8734  -0.8519  -0.7631  -0.7199  -0.6357
    -0.6243  -0.5639  -0.5459  -0.4825  -0.3814  -0.3532  -0.3355  -0.3036
    -0.2249  -0.1950  -0.1798  -0.0955  -0.0902  -0.0369   0.0536   0.0755

     occupation numbers 
     1.0000   1.0000   1.0000   1.0000   1.0000   1.0000   1.0000   1.0000
     1.0000   1.0000   1.0000   1.0000   1.0000   1.0000   1.0000   1.0000
     1.0000   1.0000   1.0000   1.0000   1.0000   1.0000   1.0000   1.0000
     1.0000   1.0000   1.0000   1.0000   1.0000   1.0000   1.0000   1.0000
     1.0000   1.0000   1.0000   1.0000   1.0000   1.0000   1.0000   1.0000
     1.0000   1.0000   1.0000   1.0000   1.0000   1.0000   1.0000   1.0000
     1.0000   1.0000   1.0000   1.0000   1.0000   1.0000   1.0000   1.0000
     1.0000   1.0000   1.0000   1.0000   1.0000   1.0000   1.0000   1.0000

          k =-0.2616 0.0000 0.0715 ( 67376 PWs)   bands (ev):

   -13.6190 -13.5098 -13.4664 -13.4154 -13.0364 -13.0001 -12.9550 -12.9397
   -12.9366 -12.8979 -12.8293 -12.8184 -12.7649 -12.7574 -12.7311 -12.7193
    -4.0506  -4.0329  -3.9787  -3.9727  -2.7326  -2.6849  -2.5403  -2.5046
    -2.3297  -2.2924  -2.2188  -2.2004  -2.1927  -2.0936  -2.0467  -1.9875
    -1.7366  -1.6192  -1.5135  -1.5051  -1.4095  -1.3079  -1.2084  -1.1150
    -1.1030  -1.0775  -1.0057  -0.8838  -0.8698  -0.7792  -0.7008  -0.6451
    -0.5809  -0.5519  -0.5076  -0.4994  -0.3696  -0.3653  -0.3163  -0.2928
    -0.2714  -0.2284  -0.1440  -0.1069  -0.0494  -0.0489   0.0619   0.0621

     occupation numbers 
     1.0000   1.0000   1.0000   1.0000   1.0000   1.0000   1.0000   1.0000
     1.0000   1.0000   1.0000   1.0000   1.0000   1.0000   1.0000   1.0000
     1.0000   1.0000   1.0000   1.0000   1.0000   1.0000   1.0000   1.0000
     1.0000   1.0000   1.0000   1.0000   1.0000   1.0000   1.0000   1.0000
     1.0000   1.0000   1.0000   1.0000   1.0000   1.0000   1.0000   1.0000
     1.0000   1.0000   1.0000   1.0000   1.0000   1.0000   1.0000   1.0000
     1.0000   1.0000   1.0000   1.0000   1.0000   1.0000   1.0000   1.0000
     1.0000   1.0000   1.0000   1.0000   1.0000   1.0000   1.0000   1.0000

          k =-0.3986 0.0000 0.0000 ( 67364 PWs)   bands (ev):

   -13.5584 -13.4787 -13.4757 -13.4647 -13.0600 -13.0048 -12.9662 -12.9536
   -12.9534 -12.8954 -12.8184 -12.8038 -12.7576 -12.7517 -12.7354 -12.7306
    -4.0129  -3.9830  -3.9534  -3.9414  -2.6784  -2.6416  -2.5716  -2.4601
    -2.3698  -2.3539  -2.2364  -2.1400  -2.1236  -2.0539  -2.0516  -1.9951
    -1.7806  -1.7370  -1.5633  -1.4909  -1.3191  -1.2508  -1.1646  -1.1417
    -1.1166  -1.0476  -1.0408  -0.9246  -0.9169  -0.8222  -0.6793  -0.6268
    -0.6014  -0.5582  -0.5176  -0.4626  -0.4608  -0.4276  -0.3886  -0.2973
    -0.2568  -0.2431  -0.2001  -0.1249  -0.0624  -0.0259   0.0215   0.0355

     occupation numbers 
     1.0000   1.0000   1.0000   1.0000   1.0000   1.0000   1.0000   1.0000
     1.0000   1.0000   1.0000   1.0000   1.0000   1.0000   1.0000   1.0000
     1.0000   1.0000   1.0000   1.0000   1.0000   1.0000   1.0000   1.0000
     1.0000   1.0000   1.0000   1.0000   1.0000   1.0000   1.0000   1.0000
     1.0000   1.0000   1.0000   1.0000   1.0000   1.0000   1.0000   1.0000
     1.0000   1.0000   1.0000   1.0000   1.0000   1.0000   1.0000   1.0000
     1.0000   1.0000   1.0000   1.0000   1.0000   1.0000   1.0000   1.0000
     1.0000   1.0000   1.0000   1.0000   1.0000   1.0000   1.0000   1.0000

          k =-0.4027 0.0000-0.0715 ( 67377 PWs)   bands (ev):

   -13.5543 -13.4909 -13.4754 -13.4580 -13.0519 -13.0112 -12.9668 -12.9539
   -12.9524 -12.8962 -12.8194 -12.8044 -12.7581 -12.7488 -12.7384 -12.7284
    -4.0156  -3.9793  -3.9489  -3.9469  -2.6772  -2.6453  -2.5571  -2.4726
    -2.3723  -2.3385  -2.2505  -2.1312  -2.1162  -2.0702  -2.0490  -2.0095
    -1.7958  -1.7229  -1.5582  -1.4603  -1.3192  -1.2814  -1.1689  -1.1573
    -1.0990  -1.0425  -1.0034  -0.9344  -0.9080  -0.8058  -0.7107  -0.6609
    -0.6342  -0.5301  -0.4997  -0.4939  -0.4561  -0.4358  -0.3367  -0.2940
    -0.2839  -0.2269  -0.2173  -0.1167  -0.0458  -0.0414   0.0166   0.0463

     occupation numbers 
     1.0000   1.0000   1.0000   1.0000   1.0000   1.0000   1.0000   1.0000
     1.0000   1.0000   1.0000   1.0000   1.0000   1.0000   1.0000   1.0000
     1.0000   1.0000   1.0000   1.0000   1.0000   1.0000   1.0000   1.0000
     1.0000   1.0000   1.0000   1.0000   1.0000   1.0000   1.0000   1.0000
     1.0000   1.0000   1.0000   1.0000   1.0000   1.0000   1.0000   1.0000
     1.0000   1.0000   1.0000   1.0000   1.0000   1.0000   1.0000   1.0000
     1.0000   1.0000   1.0000   1.0000   1.0000   1.0000   1.0000   1.0000
     1.0000   1.0000   1.0000   1.0000   1.0000   1.0000   1.0000   1.0000

          k =-0.4068 0.0000-0.1430 ( 67352 PWs)   bands (ev):

   -13.5450 -13.5070 -13.4727 -13.4559 -13.0392 -13.0208 -12.9646 -12.9532
   -12.9498 -12.9019 -12.8210 -12.8081 -12.7571 -12.7444 -12.7415 -12.7264
    -4.0149  -3.9792  -3.9526  -3.9440  -2.6712  -2.6484  -2.5329  -2.4904
    -2.3803  -2.3327  -2.2489  -2.1173  -2.1160  -2.0930  -2.0455  -2.0380
    -1.7949  -1.6948  -1.5578  -1.4373  -1.3513  -1.3482  -1.1780  -1.1430
    -1.0615  -1.0027  -0.9615  -0.9261  -0.8763  -0.7756  -0.7703  -0.6944
    -0.6791  -0.5961  -0.4842  -0.4751  -0.4383  -0.4037  -0.3210  -0.3082
    -0.3035  -0.2319  -0.1912  -0.1213  -0.0694  -0.0301   0.0184   0.0559

     occupation numbers 
     1.0000   1.0000   1.0000   1.0000   1.0000   1.0000   1.0000   1.0000
     1.0000   1.0000   1.0000   1.0000   1.0000   1.0000   1.0000   1.0000
     1.0000   1.0000   1.0000   1.0000   1.0000   1.0000   1.0000   1.0000
     1.0000   1.0000   1.0000   1.0000   1.0000   1.0000   1.0000   1.0000
     1.0000   1.0000   1.0000   1.0000   1.0000   1.0000   1.0000   1.0000
     1.0000   1.0000   1.0000   1.0000   1.0000   1.0000   1.0000   1.0000
     1.0000   1.0000   1.0000   1.0000   1.0000   1.0000   1.0000   1.0000
     1.0000   1.0000   1.0000   1.0000   1.0000   1.0000   1.0000   1.0000

          k =-0.4109 0.0000-0.2145 ( 67397 PWs)   bands (ev):

   -13.5313 -13.5237 -13.4686 -13.4582 -13.0332 -13.0247 -12.9646 -12.9543
   -12.9378 -12.9128 -12.8208 -12.8129 -12.7552 -12.7451 -12.7396 -12.7257
    -4.0110  -3.9834  -3.9566  -3.9396  -2.6615  -2.6522  -2.5138  -2.5038
    -2.3904  -2.3367  -2.2311  -2.1316  -2.1110  -2.0964  -2.0638  -2.0398
    -1.7813  -1.6666  -1.5629  -1.4465  -1.4018  -1.3756  -1.1745  -1.1285
    -1.0319  -0.9886  -0.9370  -0.8691  -0.8264  -0.8241  -0.7353  -0.7333
    -0.7163  -0.6687  -0.4798  -0.4699  -0.3968  -0.3829  -0.3559  -0.3255
    -0.2873  -0.2353  -0.1537  -0.1472  -0.0888  -0.0274   0.0248   0.0590

     occupation numbers 
     1.0000   1.0000   1.0000   1.0000   1.0000   1.0000   1.0000   1.0000
     1.0000   1.0000   1.0000   1.0000   1.0000   1.0000   1.0000   1.0000
     1.0000   1.0000   1.0000   1.0000   1.0000   1.0000   1.0000   1.0000
     1.0000   1.0000   1.0000   1.0000   1.0000   1.0000   1.0000   1.0000
     1.0000   1.0000   1.0000   1.0000   1.0000   1.0000   1.0000   1.0000
     1.0000   1.0000   1.0000   1.0000   1.0000   1.0000   1.0000   1.0000
     1.0000   1.0000   1.0000   1.0000   1.0000   1.0000   1.0000   1.0000
     1.0000   1.0000   1.0000   1.0000   1.0000   1.0000   1.0000   1.0000

          k =-0.3862 0.0000 0.2145 ( 67409 PWs)   bands (ev):

   -13.5387 -13.5148 -13.4649 -13.4632 -13.0462 -13.0117 -12.9645 -12.9551
   -12.9274 -12.9226 -12.8177 -12.8168 -12.7536 -12.7488 -12.7360 -12.7268
    -4.0047  -3.9910  -3.9585  -3.9366  -2.6587  -2.6507  -2.5395  -2.4752
    -2.3966  -2.3478  -2.2024  -2.1601  -2.1226  -2.0734  -2.0730  -2.0298
    -1.7607  -1.6690  -1.5601  -1.5076  -1.3918  -1.3713  -1.1681  -1.1124
    -1.0290  -1.0281  -0.9169  -0.8583  -0.8071  -0.8035  -0.7675  -0.7445
    -0.6938  -0.6523  -0.4941  -0.4740  -0.4206  -0.3845  -0.3451  -0.3313
    -0.2553  -0.2261  -0.1890  -0.1293  -0.1048  -0.0272   0.0306   0.0543

     occupation numbers 
     1.0000   1.0000   1.0000   1.0000   1.0000   1.0000   1.0000   1.0000
     1.0000   1.0000   1.0000   1.0000   1.0000   1.0000   1.0000   1.0000
     1.0000   1.0000   1.0000   1.0000   1.0000   1.0000   1.0000   1.0000
     1.0000   1.0000   1.0000   1.0000   1.0000   1.0000   1.0000   1.0000
     1.0000   1.0000   1.0000   1.0000   1.0000   1.0000   1.0000   1.0000
     1.0000   1.0000   1.0000   1.0000   1.0000   1.0000   1.0000   1.0000
     1.0000   1.0000   1.0000   1.0000   1.0000   1.0000   1.0000   1.0000
     1.0000   1.0000   1.0000   1.0000   1.0000   1.0000   1.0000   1.0000

          k =-0.3903 0.0000 0.1430 ( 67391 PWs)   bands (ev):

   -13.5502 -13.4973 -13.4689 -13.4636 -13.0567 -13.0037 -12.9618 -12.9560
   -12.9424 -12.9088 -12.8186 -12.8124 -12.7528 -12.7524 -12.7338 -12.7292
    -3.9995  -3.9970  -3.9584  -3.9359  -2.6671  -2.6423  -2.5612  -2.4557
    -2.3928  -2.3602  -2.1887  -2.1700  -2.1332  -2.0698  -2.0522  -2.0159
    -1.7439  -1.7054  -1.5509  -1.5446  -1.3719  -1.3312  -1.1636  -1.1042
    -1.0709  -1.0367  -0.9709  -0.8713  -0.8513  -0.7948  -0.7666  -0.6823
    -0.6378  -0.5804  -0.5152  -0.4995  -0.4554  -0.4096  -0.3253  -0.3230
    -0.2406  -0.2211  -0.2109  -0.1239  -0.1087  -0.0240   0.0324   0.0437

     occupation numbers 
     1.0000   1.0000   1.0000   1.0000   1.0000   1.0000   1.0000   1.0000
     1.0000   1.0000   1.0000   1.0000   1.0000   1.0000   1.0000   1.0000
     1.0000   1.0000   1.0000   1.0000   1.0000   1.0000   1.0000   1.0000
     1.0000   1.0000   1.0000   1.0000   1.0000   1.0000   1.0000   1.0000
     1.0000   1.0000   1.0000   1.0000   1.0000   1.0000   1.0000   1.0000
     1.0000   1.0000   1.0000   1.0000   1.0000   1.0000   1.0000   1.0000
     1.0000   1.0000   1.0000   1.0000   1.0000   1.0000   1.0000   1.0000
     1.0000   1.0000   1.0000   1.0000   1.0000   1.0000   1.0000   1.0000

          k =-0.3945 0.0000 0.0715 ( 67374 PWs)   bands (ev):

   -13.5570 -13.4818 -13.4734 -13.4660 -13.0617 -13.0020 -12.9602 -12.9571
   -12.9515 -12.8995 -12.8186 -12.8070 -12.7556 -12.7526 -12.7323 -12.7323
    -4.0073  -3.9893  -3.9567  -3.9375  -2.6746  -2.6394  -2.5731  -2.4528
    -2.3752  -2.3678  -2.2141  -2.1419  -2.1404  -2.0616  -2.0440  -2.0003
    -1.7483  -1.7393  -1.5656  -1.5213  -1.3444  -1.2795  -1.1622  -1.1147
    -1.1056  -1.0439  -1.0172  -0.9094  -0.8962  -0.8173  -0.7049  -0.6287
    -0.5910  -0.5620  -0.5291  -0.4917  -0.4653  -0.4265  -0.3570  -0.3088
    -0.2585  -0.2234  -0.1976  -0.1293  -0.0893  -0.0196   0.0314   0.0314

     occupation numbers 
     1.0000   1.0000   1.0000   1.0000   1.0000   1.0000   1.0000   1.0000
     1.0000   1.0000   1.0000   1.0000   1.0000   1.0000   1.0000   1.0000
     1.0000   1.0000   1.0000   1.0000   1.0000   1.0000   1.0000   1.0000
     1.0000   1.0000   1.0000   1.0000   1.0000   1.0000   1.0000   1.0000
     1.0000   1.0000   1.0000   1.0000   1.0000   1.0000   1.0000   1.0000
     1.0000   1.0000   1.0000   1.0000   1.0000   1.0000   1.0000   1.0000
     1.0000   1.0000   1.0000   1.0000   1.0000   1.0000   1.0000   1.0000
     1.0000   1.0000   1.0000   1.0000   1.0000   1.0000   1.0000   1.0000

          k =-0.0000-0.1429 0.0000 ( 67349 PWs)   bands (ev):

   -13.6661 -13.5155 -13.4956 -13.3750 -12.9924 -12.9895 -12.9370 -12.9061
   -12.9011 -12.8845 -12.8703 -12.8568 -12.7917 -12.7765 -12.7167 -12.7066
    -4.1253  -4.0751  -4.0613  -4.0253  -2.7623  -2.7105  -2.5356  -2.4009
    -2.3928  -2.3875  -2.3110  -2.2399  -2.2114  -2.0481  -2.0363  -1.9207
    -1.6531  -1.6196  -1.4924  -1.4350  -1.3603  -1.2790  -1.2712  -1.2223
    -1.0893  -1.0708  -0.9482  -0.9350  -0.8935  -0.7265  -0.7045  -0.6506
    -0.5592  -0.5016  -0.4992  -0.4146  -0.3553  -0.3391  -0.3087  -0.2624
    -0.1617  -0.1240  -0.0784  -0.0578  -0.0168   0.0414   0.0426   0.0499

     occupation numbers 
     1.0000   1.0000   1.0000   1.0000   1.0000   1.0000   1.0000   1.0000
     1.0000   1.0000   1.0000   1.0000   1.0000   1.0000   1.0000   1.0000
     1.0000   1.0000   1.0000   1.0000   1.0000   1.0000   1.0000   1.0000
     1.0000   1.0000   1.0000   1.0000   1.0000   1.0000   1.0000   1.0000
     1.0000   1.0000   1.0000   1.0000   1.0000   1.0000   1.0000   1.0000
     1.0000   1.0000   1.0000   1.0000   1.0000   1.0000   1.0000   1.0000
     1.0000   1.0000   1.0000   1.0000   1.0000   1.0000   1.0000   1.0000
     1.0000   1.0000   1.0000   1.0000   1.0000   1.0000   1.0000   1.0000

          k =-0.0041-0.1429-0.0715 ( 67337 PWs)   bands (ev):

   -13.6621 -13.5419 -13.4704 -13.3773 -12.9934 -12.9896 -12.9356 -12.9093
   -12.8986 -12.8847 -12.8698 -12.8577 -12.7909 -12.7773 -12.7159 -12.7070
    -4.1240  -4.0829  -4.0538  -4.0253  -2.7592  -2.7127  -2.5309  -2.4135
    -2.3901  -2.3734  -2.3364  -2.2409  -2.1858  -2.0677  -2.0195  -1.9327
    -1.6805  -1.6186  -1.4856  -1.4376  -1.3595  -1.2905  -1.2533  -1.2011
    -1.0943  -1.0459  -0.9581  -0.9245  -0.8887  -0.7510  -0.6961  -0.6304
    -0.5698  -0.5434  -0.4554  -0.4134  -0.3545  -0.3501  -0.3093  -0.2655
    -0.1557  -0.1246  -0.0849  -0.0588  -0.0194   0.0355   0.0429   0.0485

     occupation numbers 
     1.0000   1.0000   1.0000   1.0000   1.0000   1.0000   1.0000   1.0000
     1.0000   1.0000   1.0000   1.0000   1.0000   1.0000   1.0000   1.0000
     1.0000   1.0000   1.0000   1.0000   1.0000   1.0000   1.0000   1.0000
     1.0000   1.0000   1.0000   1.0000   1.0000   1.0000   1.0000   1.0000
     1.0000   1.0000   1.0000   1.0000   1.0000   1.0000   1.0000   1.0000
     1.0000   1.0000   1.0000   1.0000   1.0000   1.0000   1.0000   1.0000
     1.0000   1.0000   1.0000   1.0000   1.0000   1.0000   1.0000   1.0000
     1.0000   1.0000   1.0000   1.0000   1.0000   1.0000   1.0000   1.0000

          k =-0.0082-0.1429-0.1430 ( 67336 PWs)   bands (ev):

   -13.6502 -13.5751 -13.4407 -13.3844 -12.9946 -12.9907 -12.9320 -12.9150
   -12.8947 -12.8855 -12.8684 -12.8600 -12.7888 -12.7795 -12.7141 -12.7080
    -4.1203  -4.0945  -4.0432  -4.0261  -2.7509  -2.7190  -2.5162  -2.4276
    -2.3981  -2.3713  -2.3453  -2.2543  -2.1415  -2.0782  -2.0102  -1.9641
    -1.7105  -1.6486  -1.4605  -1.4299  -1.3599  -1.3228  -1.1996  -1.1797
    -1.1088  -1.0141  -0.9424  -0.9101  -0.8623  -0.7890  -0.6877  -0.6293
    -0.5870  -0.5437  -0.4552  -0.4153  -0.3686  -0.3386  -0.3118  -0.2558
    -0.1632  -0.1264  -0.0923  -0.0634  -0.0201   0.0250   0.0380   0.0463

     occupation numbers 
     1.0000   1.0000   1.0000   1.0000   1.0000   1.0000   1.0000   1.0000
     1.0000   1.0000   1.0000   1.0000   1.0000   1.0000   1.0000   1.0000
     1.0000   1.0000   1.0000   1.0000   1.0000   1.0000   1.0000   1.0000
     1.0000   1.0000   1.0000   1.0000   1.0000   1.0000   1.0000   1.0000
     1.0000   1.0000   1.0000   1.0000   1.0000   1.0000   1.0000   1.0000
     1.0000   1.0000   1.0000   1.0000   1.0000   1.0000   1.0000   1.0000
     1.0000   1.0000   1.0000   1.0000   1.0000   1.0000   1.0000   1.0000
     1.0000   1.0000   1.0000   1.0000   1.0000   1.0000   1.0000   1.0000

          k =-0.0124-0.1429-0.2145 ( 67333 PWs)   bands (ev):

   -13.6310 -13.6054 -13.4158 -13.3970 -12.9943 -12.9927 -12.9270 -12.9212
   -12.8907 -12.8875 -12.8661 -12.8631 -12.7858 -12.7825 -12.7118 -12.7096
    -4.1139  -4.1052  -4.0346  -4.0289  -2.7398  -2.7285  -2.4912  -2.4577
    -2.3982  -2.3876  -2.3154  -2.2826  -2.1017  -2.0768  -2.0125  -1.9967
    -1.7139  -1.6889  -1.4275  -1.4153  -1.3660  -1.3564  -1.1625  -1.1514
    -1.1143  -1.0613  -0.8819  -0.8627  -0.8468  -0.8135  -0.6965  -0.6719
    -0.5595  -0.5102  -0.4954  -0.4722  -0.3288  -0.3169  -0.3105  -0.2652
    -0.1646  -0.1423  -0.0889  -0.0772  -0.0069   0.0113   0.0361   0.0411

     occupation numbers 
     1.0000   1.0000   1.0000   1.0000   1.0000   1.0000   1.0000   1.0000
     1.0000   1.0000   1.0000   1.0000   1.0000   1.0000   1.0000   1.0000
     1.0000   1.0000   1.0000   1.0000   1.0000   1.0000   1.0000   1.0000
     1.0000   1.0000   1.0000   1.0000   1.0000   1.0000   1.0000   1.0000
     1.0000   1.0000   1.0000   1.0000   1.0000   1.0000   1.0000   1.0000
     1.0000   1.0000   1.0000   1.0000   1.0000   1.0000   1.0000   1.0000
     1.0000   1.0000   1.0000   1.0000   1.0000   1.0000   1.0000   1.0000
     1.0000   1.0000   1.0000   1.0000   1.0000   1.0000   1.0000   1.0000

          k =-0.1329-0.1429 0.0000 ( 67342 PWs)   bands (ev):

   -13.6510 -13.5085 -13.4885 -13.3841 -12.9973 -12.9957 -12.9566 -12.9302
   -12.9096 -12.8835 -12.8566 -12.8354 -12.7879 -12.7729 -12.7208 -12.7097
    -4.1076  -4.0545  -4.0419  -4.0031  -2.7486  -2.6978  -2.5550  -2.4437
    -2.3771  -2.3480  -2.2440  -2.2317  -2.2150  -2.0726  -2.0290  -1.9513
    -1.6912  -1.6052  -1.4785  -1.4246  -1.3721  -1.3294  -1.2676  -1.1770
    -1.1384  -1.0478  -0.9660  -0.9152  -0.8602  -0.7351  -0.7003  -0.6403
    -0.6237  -0.5089  -0.4835  -0.4248  -0.3795  -0.3344  -0.3187  -0.2807
    -0.1971  -0.1500  -0.0920  -0.0757  -0.0484  -0.0039   0.0558   0.0734

     occupation numbers 
     1.0000   1.0000   1.0000   1.0000   1.0000   1.0000   1.0000   1.0000
     1.0000   1.0000   1.0000   1.0000   1.0000   1.0000   1.0000   1.0000
     1.0000   1.0000   1.0000   1.0000   1.0000   1.0000   1.0000   1.0000
     1.0000   1.0000   1.0000   1.0000   1.0000   1.0000   1.0000   1.0000
     1.0000   1.0000   1.0000   1.0000   1.0000   1.0000   1.0000   1.0000
     1.0000   1.0000   1.0000   1.0000   1.0000   1.0000   1.0000   1.0000
     1.0000   1.0000   1.0000   1.0000   1.0000   1.0000   1.0000   1.0000
     1.0000   1.0000   1.0000   1.0000   1.0000   1.0000   1.0000   1.0000

          k =-0.1370-0.1429-0.0715 ( 67359 PWs)   bands (ev):

   -13.6463 -13.5358 -13.4632 -13.3863 -12.9999 -12.9905 -12.9561 -12.9315
   -12.9181 -12.8790 -12.8557 -12.8337 -12.7880 -12.7746 -12.7187 -12.7109
    -4.1080  -4.0528  -4.0438  -4.0016  -2.7458  -2.6990  -2.5622  -2.4354
    -2.3787  -2.3413  -2.2710  -2.2323  -2.1926  -2.0836  -2.0087  -1.9729
    -1.7087  -1.5903  -1.4476  -1.4096  -1.3925  -1.3567  -1.2719  -1.1903
    -1.1075  -1.0244  -0.9624  -0.8977  -0.8719  -0.7499  -0.6874  -0.6795
    -0.6432  -0.5206  -0.4589  -0.3933  -0.3633  -0.3476  -0.3193  -0.3025
    -0.1732  -0.1587  -0.1080  -0.0645  -0.0527  -0.0055   0.0556   0.0718

     occupation numbers 
     1.0000   1.0000   1.0000   1.0000   1.0000   1.0000   1.0000   1.0000
     1.0000   1.0000   1.0000   1.0000   1.0000   1.0000   1.0000   1.0000
     1.0000   1.0000   1.0000   1.0000   1.0000   1.0000   1.0000   1.0000
     1.0000   1.0000   1.0000   1.0000   1.0000   1.0000   1.0000   1.0000
     1.0000   1.0000   1.0000   1.0000   1.0000   1.0000   1.0000   1.0000
     1.0000   1.0000   1.0000   1.0000   1.0000   1.0000   1.0000   1.0000
     1.0000   1.0000   1.0000   1.0000   1.0000   1.0000   1.0000   1.0000
     1.0000   1.0000   1.0000   1.0000   1.0000   1.0000   1.0000   1.0000

          k =-0.1411-0.1429-0.1430 ( 67348 PWs)   bands (ev):

   -13.6341 -13.5670 -13.4370 -13.3923 -13.0029 -12.9879 -12.9532 -12.9305
   -12.9242 -12.8783 -12.8545 -12.8352 -12.7862 -12.7761 -12.7180 -12.7109
    -4.1069  -4.0631  -4.0349  -3.9997  -2.7396  -2.7056  -2.5577  -2.4177
    -2.3772  -2.3417  -2.3154  -2.2364  -2.1464  -2.0979  -2.0149  -1.9913
    -1.7288  -1.6083  -1.4518  -1.4077  -1.3857  -1.3433  -1.2493  -1.1939
    -1.0889  -0.9910  -0.9245  -0.8996  -0.8607  -0.7776  -0.7174  -0.6828
    -0.6427  -0.5265  -0.4505  -0.4114  -0.3698  -0.3460  -0.3139  -0.2844
    -0.1855  -0.1521  -0.1195  -0.0609  -0.0490  -0.0183   0.0546   0.0674

     occupation numbers 
     1.0000   1.0000   1.0000   1.0000   1.0000   1.0000   1.0000   1.0000
     1.0000   1.0000   1.0000   1.0000   1.0000   1.0000   1.0000   1.0000
     1.0000   1.0000   1.0000   1.0000   1.0000   1.0000   1.0000   1.0000
     1.0000   1.0000   1.0000   1.0000   1.0000   1.0000   1.0000   1.0000
     1.0000   1.0000   1.0000   1.0000   1.0000   1.0000   1.0000   1.0000
     1.0000   1.0000   1.0000   1.0000   1.0000   1.0000   1.0000   1.0000
     1.0000   1.0000   1.0000   1.0000   1.0000   1.0000   1.0000   1.0000
     1.0000   1.0000   1.0000   1.0000   1.0000   1.0000   1.0000   1.0000

          k =-0.1452-0.1429-0.2145 ( 67352 PWs)   bands (ev):

   -13.6150 -13.5955 -13.4160 -13.4031 -13.0056 -12.9881 -12.9513 -12.9286
   -12.9227 -12.8807 -12.8536 -12.8392 -12.7836 -12.7765 -12.7193 -12.7095
    -4.1047  -4.0714  -4.0284  -3.9988  -2.7313  -2.7159  -2.5428  -2.3961
    -2.3839  -2.3595  -2.3312  -2.2430  -2.1119  -2.0899  -2.0589  -1.9901
    -1.7379  -1.6392  -1.4779  -1.4196  -1.3583  -1.3106  -1.2263  -1.1844
    -1.0778  -0.9921  -0.9276  -0.8743  -0.8265  -0.7836  -0.7336  -0.6915
    -0.6159  -0.5358  -0.4885  -0.4366  -0.3709  -0.3503  -0.3061  -0.2342
    -0.2204  -0.1551  -0.1057  -0.0673  -0.0502  -0.0347   0.0577   0.0630

     occupation numbers 
     1.0000   1.0000   1.0000   1.0000   1.0000   1.0000   1.0000   1.0000
     1.0000   1.0000   1.0000   1.0000   1.0000   1.0000   1.0000   1.0000
     1.0000   1.0000   1.0000   1.0000   1.0000   1.0000   1.0000   1.0000
     1.0000   1.0000   1.0000   1.0000   1.0000   1.0000   1.0000   1.0000
     1.0000   1.0000   1.0000   1.0000   1.0000   1.0000   1.0000   1.0000
     1.0000   1.0000   1.0000   1.0000   1.0000   1.0000   1.0000   1.0000
     1.0000   1.0000   1.0000   1.0000   1.0000   1.0000   1.0000   1.0000
     1.0000   1.0000   1.0000   1.0000   1.0000   1.0000   1.0000   1.0000

          k =-0.1205-0.1429 0.2145 ( 67327 PWs)   bands (ev):

   -13.6195 -13.5899 -13.4198 -13.4005 -13.0073 -12.9894 -12.9519 -12.9275
   -12.9134 -12.8861 -12.8523 -12.8437 -12.7828 -12.7749 -12.7212 -12.7083
    -4.1030  -4.0751  -4.0256  -3.9997  -2.7291  -2.7204  -2.5268  -2.4205
    -2.3742  -2.3582  -2.3267  -2.2466  -2.1260  -2.0776  -2.0457  -2.0023
    -1.7240  -1.6666  -1.5017  -1.4328  -1.3288  -1.2993  -1.2177  -1.1439
    -1.0758  -1.0475  -0.9275  -0.8858  -0.8462  -0.7432  -0.7250  -0.6548
    -0.5731  -0.5531  -0.5303  -0.4633  -0.3854  -0.3312  -0.3030  -0.2688
    -0.1800  -0.1575  -0.0987  -0.0672  -0.0659  -0.0402   0.0594   0.0652

     occupation numbers 
     1.0000   1.0000   1.0000   1.0000   1.0000   1.0000   1.0000   1.0000
     1.0000   1.0000   1.0000   1.0000   1.0000   1.0000   1.0000   1.0000
     1.0000   1.0000   1.0000   1.0000   1.0000   1.0000   1.0000   1.0000
     1.0000   1.0000   1.0000   1.0000   1.0000   1.0000   1.0000   1.0000
     1.0000   1.0000   1.0000   1.0000   1.0000   1.0000   1.0000   1.0000
     1.0000   1.0000   1.0000   1.0000   1.0000   1.0000   1.0000   1.0000
     1.0000   1.0000   1.0000   1.0000   1.0000   1.0000   1.0000   1.0000
     1.0000   1.0000   1.0000   1.0000   1.0000   1.0000   1.0000   1.0000

          k =-0.1246-0.1429 0.1430 ( 67345 PWs)   bands (ev):

   -13.6372 -13.5606 -13.4420 -13.3907 -13.0064 -12.9915 -12.9533 -12.9268
   -12.9023 -12.8931 -12.8530 -12.8441 -12.7841 -12.7727 -12.7225 -12.7080
    -4.1037  -4.0722  -4.0271  -4.0016  -2.7394  -2.7108  -2.5260  -2.4374
    -2.3768  -2.3528  -2.3055  -2.2389  -2.1573  -2.0709  -2.0386  -1.9848
    -1.6890  -1.6811  -1.5139  -1.4432  -1.3155  -1.3068  -1.1973  -1.1416
    -1.0999  -1.0797  -0.9644  -0.8890  -0.8521  -0.7556  -0.6873  -0.6260
    -0.5874  -0.5224  -0.5062  -0.4818  -0.4087  -0.3308  -0.3053  -0.2780
    -0.1781  -0.1520  -0.1008  -0.0639  -0.0587  -0.0366   0.0571   0.0707

     occupation numbers 
     1.0000   1.0000   1.0000   1.0000   1.0000   1.0000   1.0000   1.0000
     1.0000   1.0000   1.0000   1.0000   1.0000   1.0000   1.0000   1.0000
     1.0000   1.0000   1.0000   1.0000   1.0000   1.0000   1.0000   1.0000
     1.0000   1.0000   1.0000   1.0000   1.0000   1.0000   1.0000   1.0000
     1.0000   1.0000   1.0000   1.0000   1.0000   1.0000   1.0000   1.0000
     1.0000   1.0000   1.0000   1.0000   1.0000   1.0000   1.0000   1.0000
     1.0000   1.0000   1.0000   1.0000   1.0000   1.0000   1.0000   1.0000
     1.0000   1.0000   1.0000   1.0000   1.0000   1.0000   1.0000   1.0000

          k =-0.1287-0.1429 0.0715 ( 67348 PWs)   bands (ev):

   -13.6480 -13.5292 -13.4690 -13.3855 -13.0024 -12.9939 -12.9551 -12.9280
   -12.9011 -12.8916 -12.8557 -12.8398 -12.7862 -12.7719 -12.7224 -12.7085
    -4.1058  -4.0645  -4.0329  -4.0032  -2.7465  -2.7023  -2.5402  -2.4435
    -2.3733  -2.3550  -2.2778  -2.2283  -2.1857  -2.0701  -2.0424  -1.9554
    -1.6844  -1.6446  -1.5067  -1.4418  -1.3423  -1.3036  -1.2143  -1.1711
    -1.1438  -1.0636  -0.9568  -0.9239  -0.8472  -0.7542  -0.6807  -0.6275
    -0.5974  -0.5149  -0.4869  -0.4662  -0.3941  -0.3329  -0.3207  -0.2687
    -0.1985  -0.1455  -0.1034  -0.0660  -0.0443  -0.0207   0.0560   0.0729

     occupation numbers 
     1.0000   1.0000   1.0000   1.0000   1.0000   1.0000   1.0000   1.0000
     1.0000   1.0000   1.0000   1.0000   1.0000   1.0000   1.0000   1.0000
     1.0000   1.0000   1.0000   1.0000   1.0000   1.0000   1.0000   1.0000
     1.0000   1.0000   1.0000   1.0000   1.0000   1.0000   1.0000   1.0000
     1.0000   1.0000   1.0000   1.0000   1.0000   1.0000   1.0000   1.0000
     1.0000   1.0000   1.0000   1.0000   1.0000   1.0000   1.0000   1.0000
     1.0000   1.0000   1.0000   1.0000   1.0000   1.0000   1.0000   1.0000
     1.0000   1.0000   1.0000   1.0000   1.0000   1.0000   1.0000   1.0000

          k =-0.2657-0.1429 0.0000 ( 67361 PWs)   bands (ev):

   -13.6085 -13.4910 -13.4720 -13.4156 -13.0260 -13.0103 -12.9673 -12.9456
   -12.9367 -12.8935 -12.8310 -12.8147 -12.7790 -12.7627 -12.7318 -12.7178
    -4.0618  -4.0198  -3.9864  -3.9551  -2.7066  -2.6679  -2.5697  -2.4815
    -2.3633  -2.3024  -2.2239  -2.2084  -2.1377  -2.1143  -2.0218  -1.9856
    -1.7347  -1.6530  -1.5082  -1.4443  -1.3954  -1.3047  -1.2482  -1.1700
    -1.0819  -1.0360  -1.0072  -0.9167  -0.8265  -0.7800  -0.7250  -0.6813
    -0.6048  -0.5248  -0.5072  -0.4230  -0.3986  -0.3790  -0.3512  -0.3054
    -0.2539  -0.2424  -0.1205  -0.0970  -0.0752  -0.0199   0.0320   0.0598

     occupation numbers 
     1.0000   1.0000   1.0000   1.0000   1.0000   1.0000   1.0000   1.0000
[...]
     1.0000   1.0000   1.0000   1.0000   1.0000   1.0000   1.0000   1.0000
     1.0000   1.0000   1.0000   1.0000   1.0000   1.0000   1.0000   1.0000
     1.0000   1.0000   1.0000   1.0000   1.0000   1.0000   1.0000   1.0000
     1.0000   1.0000   1.0000   1.0000   1.0000   1.0000   1.0000   1.0000
     1.0000   1.0000   1.0000   1.0000   1.0000   1.0000   1.0000   1.0000
     1.0000   1.0000   1.0000   1.0000   1.0000   1.0000   1.0000   1.0000
     1.0000   1.0000   1.0000   1.0000   1.0000   1.0000   1.0000   1.0000

     highest occupied level (ev):     0.0825

!    total energy              =    -501.70232725 Ry
     estimated scf accuracy    <       0.00000047 Ry

     The total energy is the sum of the following terms:
     one-electron contribution =    -127.27436298 Ry
     hartree contribution      =     109.62705168 Ry
     xc contribution           =    -102.56180073 Ry
     ewald contribution        =    -381.49321522 Ry

     convergence has been achieved in   8 iterations

     Forces acting on atoms (cartesian axes, Ry/au):

     atom    1 type  1   force =    -0.00087217    0.00082789    0.00216234
     atom    2 type  1   force =     0.00087217    0.00082789   -0.00216234
     atom    3 type  1   force =     0.00087217   -0.00082789   -0.00216234
     atom    4 type  1   force =    -0.00087217   -0.00082789    0.00216234
     atom    5 type  2   force =    -0.00063641   -0.00222187    0.00226129
     atom    6 type  2   force =     0.00063641   -0.00222187   -0.00226129
     atom    7 type  2   force =     0.00063641    0.00222187   -0.00226129
     atom    8 type  2   force =    -0.00063641    0.00222187    0.00226129
     atom    9 type  3   force =    -0.00030441    0.00639937    0.01341511
     atom   10 type  3   force =     0.00030441    0.00639937   -0.01341511
     atom   11 type  3   force =     0.00030441   -0.00639937   -0.01341511
     atom   12 type  3   force =    -0.00030441   -0.00639937    0.01341511
     atom   13 type  3   force =     0.00558072   -0.01284129    0.00171051
     atom   14 type  3   force =    -0.00558072   -0.01284129   -0.00171051
     atom   15 type  3   force =    -0.00558072    0.01284129   -0.00171051
     atom   16 type  3   force =     0.00558072    0.01284129    0.00171051
     atom   17 type  3   force =     0.01112583    0.00682035   -0.00945131
     atom   18 type  3   force =    -0.01112583    0.00682035    0.00945131
     atom   19 type  3   force =    -0.01112583   -0.00682035    0.00945131
     atom   20 type  3   force =     0.01112583   -0.00682035   -0.00945131
     atom   21 type  3   force =    -0.01361941    0.00065481   -0.00745194
     atom   22 type  3   force =     0.01361941    0.00065481    0.00745194
     atom   23 type  3   force =     0.01361941   -0.00065481    0.00745194
     atom   24 type  3   force =    -0.01361941   -0.00065481   -0.00745194
     The non-local contrib.  to forces
     atom    1 type  1   force =    -0.01739100   -0.01341808   -0.00099418
     atom    2 type  1   force =     0.01739100   -0.01341808    0.00099418
     atom    3 type  1   force =     0.01739100    0.01341808    0.00099418
     atom    4 type  1   force =    -0.01739100    0.01341808   -0.00099418
     atom    5 type  2   force =     0.00087713    0.01439369   -0.03005703
     atom    6 type  2   force =    -0.00087713    0.01439369    0.03005703
     atom    7 type  2   force =    -0.00087713   -0.01439369    0.03005703
     atom    8 type  2   force =     0.00087713   -0.01439369   -0.03005703
     atom    9 type  3   force =     0.03933031   -0.13504760   -0.13772402
     atom   10 type  3   force =    -0.03933031   -0.13504760    0.13772402
     atom   11 type  3   force =    -0.03933031    0.13504760    0.13772402
     atom   12 type  3   force =     0.03933031    0.13504760   -0.13772402
     atom   13 type  3   force =    -0.01223439    0.18767512   -0.01234448
     atom   14 type  3   force =     0.01223439    0.18767512    0.01234448
     atom   15 type  3   force =     0.01223439   -0.18767512    0.01234448
     atom   16 type  3   force =    -0.01223439   -0.18767512   -0.01234448
     atom   17 type  3   force =    -0.14110402   -0.08329535    0.03624145
     atom   18 type  3   force =     0.14110402   -0.08329535   -0.03624145
     atom   19 type  3   force =     0.14110402    0.08329535   -0.03624145
     atom   20 type  3   force =    -0.14110402    0.08329535    0.03624145
     atom   21 type  3   force =     0.11390716   -0.06277093    0.14460434
     atom   22 type  3   force =    -0.11390716   -0.06277093   -0.14460434
     atom   23 type  3   force =    -0.11390716    0.06277093   -0.14460434
     atom   24 type  3   force =     0.11390716    0.06277093    0.14460434
     The ionic contribution  to forces
     atom    1 type  1   force =    -0.02423539   -0.05007099   -0.11403160
     atom    2 type  1   force =     0.02423539   -0.05007099    0.11403160
     atom    3 type  1   force =     0.02423539    0.05007099    0.11403160
     atom    4 type  1   force =    -0.02423539    0.05007099   -0.11403160
     atom    5 type  2   force =    -0.18827817    0.26150167   -0.19527978
     atom    6 type  2   force =     0.18827817    0.26150167    0.19527978
     atom    7 type  2   force =     0.18827817   -0.26150167    0.19527978
     atom    8 type  2   force =    -0.18827817   -0.26150167   -0.19527978
     atom    9 type  3   force =    -0.15118188    2.01723636    2.20437328
     atom   10 type  3   force =     0.15118188    2.01723636   -2.20437328
     atom   11 type  3   force =     0.15118188   -2.01723636   -2.20437328
     atom   12 type  3   force =    -0.15118188   -2.01723636    2.20437328
     atom   13 type  3   force =     0.32252200   -3.04795898   -0.01908978
     atom   14 type  3   force =    -0.32252200   -3.04795898    0.01908978
     atom   15 type  3   force =    -0.32252200    3.04795898    0.01908978
     atom   16 type  3   force =     0.32252200    3.04795898   -0.01908978
     atom   17 type  3   force =     1.72511832    1.44022468   -1.10806173
     atom   18 type  3   force =    -1.72511832    1.44022468    1.10806173
     atom   19 type  3   force =    -1.72511832   -1.44022468    1.10806173
     atom   20 type  3   force =     1.72511832   -1.44022468   -1.10806173
     atom   21 type  3   force =    -1.95880577    0.42461295   -1.37177756
     atom   22 type  3   force =     1.95880577    0.42461295    1.37177756
     atom   23 type  3   force =     1.95880577   -0.42461295    1.37177756
     atom   24 type  3   force =    -1.95880577   -0.42461295   -1.37177756
     The local contribution  to forces
     atom    1 type  1   force =     0.03812278    0.06229394    0.11698714
     atom    2 type  1   force =    -0.03812278    0.06229394   -0.11698714
     atom    3 type  1   force =    -0.03812278   -0.06229394   -0.11698714
     atom    4 type  1   force =     0.03812278   -0.06229394    0.11698714
     atom    5 type  2   force =     0.18676336   -0.27812437    0.22760518
     atom    6 type  2   force =    -0.18676336   -0.27812437   -0.22760518
     atom    7 type  2   force =    -0.18676336    0.27812437   -0.22760518
     atom    8 type  2   force =     0.18676336    0.27812437    0.22760518
     atom    9 type  3   force =     0.11148462   -1.87599403   -2.05359570
     atom   10 type  3   force =    -0.11148462   -1.87599403    2.05359570
     atom   11 type  3   force =    -0.11148462    1.87599403    2.05359570
     atom   12 type  3   force =     0.11148462    1.87599403   -2.05359570
     atom   13 type  3   force =    -0.30484830    2.84780028    0.03317765
     atom   14 type  3   force =     0.30484830    2.84780028   -0.03317765
     atom   15 type  3   force =     0.30484830   -2.84780028   -0.03317765
     atom   16 type  3   force =    -0.30484830   -2.84780028    0.03317765
     atom   17 type  3   force =    -1.57319372   -1.35027733    1.06260736
     atom   18 type  3   force =     1.57319372   -1.35027733   -1.06260736
     atom   19 type  3   force =     1.57319372    1.35027733   -1.06260736
     atom   20 type  3   force =    -1.57319372    1.35027733    1.06260736
     atom   21 type  3   force =     1.83162573   -0.36122495    1.21993847
     atom   22 type  3   force =    -1.83162573   -0.36122495   -1.21993847
     atom   23 type  3   force =    -1.83162573    0.36122495   -1.21993847
     atom   24 type  3   force =     1.83162573    0.36122495    1.21993847
     The core correction contribution to forces
     atom    1 type  1   force =     0.00263511    0.00202217    0.00021186
     atom    2 type  1   force =    -0.00263511    0.00202217   -0.00021186
     atom    3 type  1   force =    -0.00263511   -0.00202217   -0.00021186
     atom    4 type  1   force =     0.00263511   -0.00202217    0.00021186
     atom    5 type  2   force =     0.00000000    0.00000000    0.00000000
     atom    6 type  2   force =     0.00000000    0.00000000    0.00000000
     atom    7 type  2   force =     0.00000000    0.00000000    0.00000000
     atom    8 type  2   force =     0.00000000    0.00000000    0.00000000
     atom    9 type  3   force =     0.00000000    0.00000000    0.00000000
     atom   10 type  3   force =     0.00000000    0.00000000    0.00000000
     atom   11 type  3   force =     0.00000000    0.00000000    0.00000000
     atom   12 type  3   force =     0.00000000    0.00000000    0.00000000
     atom   13 type  3   force =     0.00000000    0.00000000    0.00000000
     atom   14 type  3   force =     0.00000000    0.00000000    0.00000000
     atom   15 type  3   force =     0.00000000    0.00000000    0.00000000
     atom   16 type  3   force =     0.00000000    0.00000000    0.00000000
     atom   17 type  3   force =     0.00000000    0.00000000    0.00000000
     atom   18 type  3   force =     0.00000000    0.00000000    0.00000000
     atom   19 type  3   force =     0.00000000    0.00000000    0.00000000
     atom   20 type  3   force =     0.00000000    0.00000000    0.00000000
     atom   21 type  3   force =     0.00000000    0.00000000    0.00000000
     atom   22 type  3   force =     0.00000000    0.00000000    0.00000000
     atom   23 type  3   force =     0.00000000    0.00000000    0.00000000
     atom   24 type  3   force =     0.00000000    0.00000000    0.00000000
     The Hubbard contrib.    to forces
     atom    1 type  1   force =     0.00000000    0.00000000    0.00000000
     atom    2 type  1   force =     0.00000000    0.00000000    0.00000000
     atom    3 type  1   force =     0.00000000    0.00000000    0.00000000
     atom    4 type  1   force =     0.00000000    0.00000000    0.00000000
     atom    5 type  2   force =     0.00000000    0.00000000    0.00000000
     atom    6 type  2   force =     0.00000000    0.00000000    0.00000000
     atom    7 type  2   force =     0.00000000    0.00000000    0.00000000
     atom    8 type  2   force =     0.00000000    0.00000000    0.00000000
     atom    9 type  3   force =     0.00000000    0.00000000    0.00000000
     atom   10 type  3   force =     0.00000000    0.00000000    0.00000000
     atom   11 type  3   force =     0.00000000    0.00000000    0.00000000
     atom   12 type  3   force =     0.00000000    0.00000000    0.00000000
     atom   13 type  3   force =     0.00000000    0.00000000    0.00000000
     atom   14 type  3   force =     0.00000000    0.00000000    0.00000000
     atom   15 type  3   force =     0.00000000    0.00000000    0.00000000
     atom   16 type  3   force =     0.00000000    0.00000000    0.00000000
     atom   17 type  3   force =     0.00000000    0.00000000    0.00000000
     atom   18 type  3   force =     0.00000000    0.00000000    0.00000000
     atom   19 type  3   force =     0.00000000    0.00000000    0.00000000
     atom   20 type  3   force =     0.00000000    0.00000000    0.00000000
     atom   21 type  3   force =     0.00000000    0.00000000    0.00000000
     atom   22 type  3   force =     0.00000000    0.00000000    0.00000000
     atom   23 type  3   force =     0.00000000    0.00000000    0.00000000
     atom   24 type  3   force =     0.00000000    0.00000000    0.00000000
     The SCF correction term to forces
     atom    1 type  1   force =    -0.00000368    0.00000086   -0.00001087
     atom    2 type  1   force =     0.00000368    0.00000086    0.00001087
     atom    3 type  1   force =     0.00000368   -0.00000086    0.00001087
     atom    4 type  1   force =    -0.00000368   -0.00000086   -0.00001087
     atom    5 type  2   force =     0.00000127    0.00000714   -0.00000708
     atom    6 type  2   force =    -0.00000127    0.00000714    0.00000708
     atom    7 type  2   force =    -0.00000127   -0.00000714    0.00000708
     atom    8 type  2   force =     0.00000127   -0.00000714   -0.00000708
     atom    9 type  3   force =     0.00006254    0.00020465    0.00036155
     atom   10 type  3   force =    -0.00006254    0.00020465   -0.00036155
     atom   11 type  3   force =    -0.00006254   -0.00020465   -0.00036155
     atom   12 type  3   force =     0.00006254   -0.00020465    0.00036155
     atom   13 type  3   force =     0.00014141   -0.00035770   -0.00003288
     atom   14 type  3   force =    -0.00014141   -0.00035770    0.00003288
     atom   15 type  3   force =    -0.00014141    0.00035770    0.00003288
     atom   16 type  3   force =     0.00014141    0.00035770   -0.00003288
     atom   17 type  3   force =     0.00030525    0.00016835   -0.00023839
     atom   18 type  3   force =    -0.00030525    0.00016835    0.00023839
     atom   19 type  3   force =    -0.00030525   -0.00016835    0.00023839
     atom   20 type  3   force =     0.00030525   -0.00016835   -0.00023839
     atom   21 type  3   force =    -0.00034653    0.00003773   -0.00021719
     atom   22 type  3   force =     0.00034653    0.00003773    0.00021719
     atom   23 type  3   force =     0.00034653   -0.00003773    0.00021719
     atom   24 type  3   force =    -0.00034653   -0.00003773   -0.00021719

     Total force =     0.061242     Total SCF correction =     0.001640


     Computing stress (Cartesian axis) and pressure

          total   stress  (Ry/bohr**3)                   (kbar)     P=       18.45
   0.00012742   0.00000000   0.00000253           18.74        0.00        0.37
   0.00000000   0.00012556   0.00000000            0.00       18.47        0.00
   0.00000253   0.00000000   0.00012326            0.37        0.00       18.13

     kinetic stress (kbar)   4575.16      0.00     -9.86
                                0.00   4622.17      0.00
                               -9.86      0.00   4579.94

     local   stress (kbar)  -6141.62     -0.00    -92.11
                               -0.00  -5379.20     -0.00
                              -92.11     -0.00  -5841.84

     nonloc. stress (kbar)   5733.14      0.00      1.27
                                0.00   5731.38      0.00
                                1.27      0.00   5733.01

     hartree stress (kbar)   1463.98     -0.00     24.12
                               -0.00   1226.62      0.00
                               24.12      0.00   1353.29

     exc-cor stress (kbar)  -1155.55      0.00      0.25
                                0.00  -1156.69     -0.00
                                0.25     -0.00  -1156.09

     corecor stress (kbar)    -20.04      0.00     -0.02
                                0.00    -20.03     -0.00
                               -0.02     -0.00    -19.85

     ewald   stress (kbar)  -4436.33      0.00     76.71
                                0.00  -5005.77      0.00
                               76.71      0.00  -4630.32

     hubbard stress (kbar)      0.00      0.00      0.00
                                0.00      0.00      0.00
                                0.00      0.00      0.00

     DFT-D   stress (kbar)      0.00      0.00      0.00
                                0.00      0.00      0.00
                                0.00      0.00      0.00

     XDM     stress (kbar)      0.00      0.00      0.00
                                0.00      0.00      0.00
                                0.00      0.00      0.00

     dft-nl  stress (kbar)      0.00      0.00      0.00
                                0.00      0.00      0.00
                                0.00      0.00      0.00

     TS-vdW  stress (kbar)      0.00      0.00      0.00
                                0.00      0.00      0.00
                                0.00      0.00      0.00

     MDB     stress (kbar)      0.00      0.00      0.00
                                0.00      0.00      0.00
                                0.00      0.00      0.00

     3D-RISM stress (kbar)      0.00      0.00      0.00
                                0.00      0.00      0.00
                                0.00      0.00      0.00


     Writing all to output data dir ./out/LAC.save/ :
     XML data file, charge density, pseudopotentials, collected wavefunctions

     init_run     :   2010.89s CPU   2033.58s WALL (       1 calls)
     electrons    :  17881.37s CPU  19779.60s WALL (       1 calls)
     forces       :    218.75s CPU    219.90s WALL (       1 calls)
     stress       :    619.43s CPU    626.91s WALL (       1 calls)

     Called by init_run:
     wfcinit      :   2007.74s CPU   2030.23s WALL (       1 calls)
     wfcinit:atom :      3.75s CPU      6.82s WALL (     100 calls)
     wfcinit:wfcr :   1983.25s CPU   2000.85s WALL (     100 calls)
     potinit      :      1.38s CPU      1.49s WALL (       1 calls)
     hinit0       :      1.13s CPU      1.18s WALL (       1 calls)

     Called by electrons:
     c_bands      :  14915.07s CPU  16693.26s WALL (       9 calls)
     sum_band     :   2960.28s CPU   2979.20s WALL (       9 calls)
     v_of_rho     :      4.99s CPU      5.37s WALL (       9 calls)
     v_h          :      0.59s CPU      0.63s WALL (       9 calls)
     v_xc         :      5.41s CPU      5.89s WALL (      11 calls)
     mix_rho      :      0.93s CPU      1.05s WALL (       9 calls)

     Called by c_bands:
     init_us_2    :     51.47s CPU     52.27s WALL (    2100 calls)
     cegterg      :  14859.56s CPU  14971.61s WALL (     900 calls)

     Called by sum_band:
     sum_band:wei :      0.00s CPU      0.00s WALL (       9 calls)
     sum_band:loo :   2959.23s CPU   2978.04s WALL (       9 calls)
     sum_band:buf :      8.17s CPU     10.88s WALL (     900 calls)
     sum_band:ini :     21.73s CPU     22.15s WALL (     900 calls)

     Called by *egterg:
     cdiaghg      :     16.29s CPU     16.37s WALL (    2800 calls)
     cegterg:over :    120.26s CPU    121.03s WALL (    2000 calls)
     cegterg:upda :     91.25s CPU     93.56s WALL (    2000 calls)
     cegterg:last :    106.17s CPU    107.38s WALL (    1891 calls)
     h_psi        :  16345.09s CPU  16464.96s WALL (    3000 calls)
     g_psi        :     37.29s CPU     37.33s WALL (    2000 calls)

     Called by h_psi:
     h_psi:calbec :     93.17s CPU     95.49s WALL (    3000 calls)
     vloc_psi     :  16136.55s CPU  16240.42s WALL (    3000 calls)
     add_vuspsi   :     72.23s CPU     72.77s WALL (    3000 calls)

     General routines
     calbec       :    107.34s CPU    109.68s WALL (    3500 calls)
     fft          :      5.24s CPU      5.51s WALL (     131 calls)
     ffts         :      1.14s CPU      1.15s WALL (      18 calls)
     fftw         :  11756.44s CPU  11861.36s WALL (  417514 calls)
     interpolate  :      1.21s CPU      1.24s WALL (       9 calls)

     Parallel routines

     PWSCF        :      5h45m CPU      6h38m WALL


   This run was terminated on:   4:47:49  11Nov2024            

=------------------------------------------------------------------------------=
   JOB DONE.
=------------------------------------------------------------------------------=
