### Running on host: gra337.graham.sharcnet

     Program PWSCF v.7.3.1 starts on 11Nov2024 at  4:48:42 

     This program is part of the open-source Quantum ESPRESSO suite
     for quantum simulation of materials; please cite
         "P. Giannozzi et al., J. Phys.:Condens. Matter 21 395502 (2009);
         "P. Giannozzi et al., J. Phys.:Condens. Matter 29 465901 (2017);
         "P. Giannozzi et al., J. Chem. Phys. 152 154105 (2020);
          URL http://www.quantum-espresso.org", 
     in publications or presentations arising from this work. More details at
     http://www.quantum-espresso.org/quote

     Parallel version (MPI & OpenMP), running on      16 processor cores
     Number of MPI processes:                 4
     Threads/MPI process:                     4

     MPI processes distributed on     1 nodes
     14320 MiB available memory on the printing compute node when the environment starts

     Reading input from LAC_scf_kpts-9.in

     Current dimensions of program PWSCF are:
     Max number of different atomic species (ntypx) = 10
     Max number of k-points (npk) =  40000
     Max angular momentum in pseudopotentials (lmaxx) =  4
     file Li.pbe-tm-gipaw-dc.UPF: wavefunction(s)  2S 2P 3S 3P renormalized
     WARNING: atomic wfc #  3 for atom typeAl has zero norm
     WARNING: atomic wfc #  4 for atom typeAl has zero norm
     Message from routine setup:
     using ibrav=0 with symmetry is DISCOURAGED, use correct ibrav instead

     R & G space division:  proc/nbgrp/npool/nimage =       4
     Subspace diagonalization in iterative solution of the eigenvalue problem:
     a serial algorithm will be used


     Parallelization info
     --------------------
     sticks:   dense  smooth     PW     G-vecs:    dense   smooth      PW
     Min        1940    1294    344               247428   134672   18571
     Max        1941    1295    345               247431   134674   18575
     Sum        7761    5179   1379               989717   538691   74291

     Using Slab Decomposition



     bravais-lattice index     =            0
     lattice parameter (alat)  =      12.2889  a.u.
     unit-cell volume          =    3987.9110 (a.u.)^3
     number of atoms/cell      =           24
     number of atomic types    =            3
     number of electrons       =       128.00
     number of Kohn-Sham states=           64
     kinetic-energy cutoff     =     100.0000  Ry
     charge density cutoff     =     600.0000  Ry
     scf convergence threshold =      1.0E-06
     mixing beta               =       0.4000
     number of iterations used =            8  plain     mixing
     Exchange-correlation=  SLA  PW   PBX  PBC
                           (   1   4   3   4   0   0   0)

     celldm(1)=  12.288889  celldm(2)=   0.000000  celldm(3)=   0.000000
     celldm(4)=   0.000000  celldm(5)=   0.000000  celldm(6)=   0.000000

     crystal axes: (cart. coord. in units of alat)
               a(1) = (  -0.000000  -1.000000  -0.000000 )  
               a(2) = (  -1.075255   0.000000   0.061999 )  
               a(3) = (   0.000000   0.000000  -1.998462 )  

     reciprocal axes: (cart. coord. in units 2 pi/alat)
               b(1) = ( -0.000000 -1.000000 -0.000000 )  
               b(2) = ( -0.930012  0.000000  0.000000 )  
               b(3) = ( -0.028852  0.000000 -0.500385 )  


     PseudoPot. # 1 for Li read from file:
     /home/cgurwell/projects/rrg-ravh011/cgurwell/pseudo/Li.pbe-tm-gipaw-dc.UPF
     MD5 check sum: 258bf1e32d815cbe0990be85d5d6a6e5
     Pseudo is Norm-conserving + core correction, Zval =  1.0
     Generated by new atomic code, or converted to UPF format
     Using radial grid of 1371 points,  1 beta functions with: 
                l(1) =   0

     PseudoPot. # 2 for Al read from file:
     /home/cgurwell/projects/rrg-ravh011/cgurwell/pseudo/Al.pbe-tm-gipaw-dc.UPF
     MD5 check sum: efdf9c81b1c08458edd46fe92d869955
     Pseudo is Norm-conserving, Zval =  3.0
     Generated by new atomic code, or converted to UPF format
     Using radial grid of 1519 points,  2 beta functions with: 
                l(1) =   0
                l(2) =   1

     PseudoPot. # 3 for Cl read from file:
     /home/cgurwell/projects/rrg-ravh011/cgurwell/pseudo/Cl.pbe-tm-gipaw.UPF
     MD5 check sum: 6263502ce953d769893a136fffc16e2a
     Pseudo is Norm-conserving, Zval =  7.0
     Generated by new atomic code, or converted to UPF format
     Using radial grid of 1157 points,  2 beta functions with: 
                l(1) =   0
                l(2) =   1

     atomic species   valence    mass     pseudopotential
     Li                1.00     6.94100     Li( 1.00)
     Al                3.00    26.98154     Al( 1.00)
     Cl                7.00    35.45300     Cl( 1.00)

      4 Sym. Ops., with inversion, found ( 2 have fractional translation)


                                    s                        frac. trans.

      isym =  1     identity                                     

 cryst.   s( 1) = (     1          0          0      )
                  (     0          1          0      )
                  (     0          0          1      )

 cart.    s( 1) = (  1.0000000  0.0000000  0.0000000 )
                  (  0.0000000  1.0000000  0.0000000 )
                  (  0.0000000  0.0000000  1.0000000 )


      isym =  2     180 deg rotation - cart. axis [0,1,0]        

 cryst.   s( 2) = (     1          0          0      )    f =( -0.5000000 )
                  (     0         -1          0      )       (  0.0000000 )
                  (     0          0         -1      )       (  0.5000000 )

 cart.    s( 2) = ( -1.0000000  0.0000000  0.0000000 )    f =(  0.0000000 )
                  (  0.0000000  1.0000000  0.0000000 )       (  0.5000000 )
                  ( -0.0000000  0.0000000 -1.0000000 )       ( -0.9992311 )


      isym =  3     inversion                                    

 cryst.   s( 3) = (    -1          0          0      )
                  (     0         -1          0      )
                  (     0          0         -1      )

 cart.    s( 3) = ( -1.0000000  0.0000000  0.0000000 )
                  (  0.0000000 -1.0000000  0.0000000 )
                  ( -0.0000000  0.0000000 -1.0000000 )


      isym =  4     inv. 180 deg rotation - cart. axis [0,1,0]   

 cryst.   s( 4) = (    -1          0          0      )    f =(  0.5000000 )
                  (     0          1          0      )       (  0.0000000 )
                  (     0          0          1      )       ( -0.5000000 )

 cart.    s( 4) = (  1.0000000  0.0000000  0.0000000 )    f =( -0.0000000 )
                  (  0.0000000 -1.0000000  0.0000000 )       ( -0.5000000 )
                  (  0.0000000  0.0000000  1.0000000 )       (  0.9992311 )


   Cartesian axes

     site n.     atom                  positions (alat units)
         1        Li     tau(   1) = (  -0.9056877  -0.4850000  -0.2183702  )
         2        Li     tau(   2) = (  -0.1695678  -0.9850000  -0.7188621  )
         3        Li     tau(   3) = (  -0.1695678  -0.5150000  -1.7180932  )
         4        Li     tau(   4) = (  -0.9056877  -0.0150000  -1.2176013  )
         5        Al     tau(   5) = (  -0.3162326  -0.8217000  -1.1827820  )
         6        Al     tau(   6) = (  -0.7590228  -0.3217000  -1.7529125  )
         7        Al     tau(   7) = (  -0.7590228  -0.1783000  -0.7536814  )
         8        Al     tau(   8) = (  -0.3162326  -0.6783000  -0.1835509  )
         9        Cl     tau(   9) = (  -0.3292432  -0.6832000  -0.8869788  )
        10        Cl     tau(  10) = (  -0.7460122  -0.1832000  -0.0502534  )
        11        Cl     tau(  11) = (  -0.7460122  -0.3168000  -1.0494846  )
        12        Cl     tau(  12) = (  -0.3292432  -0.8168000  -1.8862100  )
        13        Cl     tau(  13) = (  -0.2058039  -0.1281000  -1.1300747  )
        14        Cl     tau(  14) = (  -0.8694515  -0.6281000  -1.8056198  )
        15        Cl     tau(  15) = (  -0.8694515  -0.8719000  -0.8063887  )
        16        Cl     tau(  16) = (  -0.2058039  -0.3719000  -0.1308436  )
        17        Cl     tau(  17) = (  -0.0801065  -0.6812000  -1.3666060  )
        18        Cl     tau(  18) = (  -0.9951489  -0.1812000  -1.5690886  )
        19        Cl     tau(  19) = (  -0.9951489  -0.3188000  -0.5698574  )
        20        Cl     tau(  20) = (  -0.0801065  -0.8188000  -0.3673748  )
        21        Cl     tau(  21) = (  -0.6024656  -0.8140000  -1.3383055  )
        22        Cl     tau(  22) = (  -0.4727898  -0.3140000  -1.5973890  )
        23        Cl     tau(  23) = (  -0.4727898  -0.1860000  -0.5981579  )
        24        Cl     tau(  24) = (  -0.6024656  -0.6860000  -0.3390744  )

   Crystallographic axes

     site n.     atom                  positions (cryst. coord.)
         1        Li     tau(   1) = (  0.4850000  0.8423000  0.1354000  )
         2        Li     tau(   2) = (  0.9850000  0.1577000  0.3646000  )
         3        Li     tau(   3) = (  0.5150000  0.1577000  0.8646000  )
         4        Li     tau(   4) = (  0.0150000  0.8423000  0.6354000  )
         5        Al     tau(   5) = (  0.8217000  0.2941000  0.6009700  )
         6        Al     tau(   6) = (  0.3217000  0.7059000  0.8990300  )
         7        Al     tau(   7) = (  0.1783000  0.7059000  0.3990300  )
         8        Al     tau(   8) = (  0.6783000  0.2941000  0.1009700  )
         9        Cl     tau(   9) = (  0.6832000  0.3062000  0.4533300  )
        10        Cl     tau(  10) = (  0.1832000  0.6938000  0.0466700  )
        11        Cl     tau(  11) = (  0.3168000  0.6938000  0.5466700  )
        12        Cl     tau(  12) = (  0.8168000  0.3062000  0.9533300  )
        13        Cl     tau(  13) = (  0.1281000  0.1914000  0.5714100  )
        14        Cl     tau(  14) = (  0.6281000  0.8086000  0.9285900  )
        15        Cl     tau(  15) = (  0.8719000  0.8086000  0.4285900  )
        16        Cl     tau(  16) = (  0.3719000  0.1914000  0.0714100  )
        17        Cl     tau(  17) = (  0.6812000  0.0745000  0.6861400  )
        18        Cl     tau(  18) = (  0.1812000  0.9255000  0.8138600  )
        19        Cl     tau(  19) = (  0.3188000  0.9255000  0.3138600  )
        20        Cl     tau(  20) = (  0.8188000  0.0745000  0.1861400  )
        21        Cl     tau(  21) = (  0.8140000  0.5603000  0.6870500  )
        22        Cl     tau(  22) = (  0.3140000  0.4397000  0.8129500  )
        23        Cl     tau(  23) = (  0.1860000  0.4397000  0.3129500  )
        24        Cl     tau(  24) = (  0.6860000  0.5603000  0.1870500  )

     number of k points=   205
                       cart. coord. in units 2pi/alat
        k(    1) = (  -0.0000000   0.0000000   0.0000000), wk =   0.0027435
        k(    2) = (  -0.0032058   0.0000000  -0.0555983), wk =   0.0054870
        k(    3) = (  -0.0064116   0.0000000  -0.1111966), wk =   0.0054870
        k(    4) = (  -0.0096173   0.0000000  -0.1667949), wk =   0.0054870
        k(    5) = (  -0.0128231   0.0000000  -0.2223932), wk =   0.0054870
        k(    6) = (  -0.1033346   0.0000000   0.0000000), wk =   0.0054870
        k(    7) = (  -0.1065404   0.0000000  -0.0555983), wk =   0.0054870
        k(    8) = (  -0.1097462   0.0000000  -0.1111966), wk =   0.0054870
        k(    9) = (  -0.1129520   0.0000000  -0.1667949), wk =   0.0054870
        k(   10) = (  -0.1161577   0.0000000  -0.2223932), wk =   0.0054870
        k(   11) = (  -0.0905115   0.0000000   0.2223932), wk =   0.0054870
        k(   12) = (  -0.0937173   0.0000000   0.1667949), wk =   0.0054870
        k(   13) = (  -0.0969231   0.0000000   0.1111966), wk =   0.0054870
        k(   14) = (  -0.1001288   0.0000000   0.0555983), wk =   0.0054870
        k(   15) = (  -0.2066692   0.0000000   0.0000000), wk =   0.0054870
        k(   16) = (  -0.2098750   0.0000000  -0.0555983), wk =   0.0054870
        k(   17) = (  -0.2130808   0.0000000  -0.1111966), wk =   0.0054870
        k(   18) = (  -0.2162866   0.0000000  -0.1667949), wk =   0.0054870
        k(   19) = (  -0.2194924   0.0000000  -0.2223932), wk =   0.0054870
        k(   20) = (  -0.1938461   0.0000000   0.2223932), wk =   0.0054870
        k(   21) = (  -0.1970519   0.0000000   0.1667949), wk =   0.0054870
        k(   22) = (  -0.2002577   0.0000000   0.1111966), wk =   0.0054870
        k(   23) = (  -0.2034635   0.0000000   0.0555983), wk =   0.0054870
        k(   24) = (  -0.3100039   0.0000000   0.0000000), wk =   0.0054870
        k(   25) = (  -0.3132096   0.0000000  -0.0555983), wk =   0.0054870
        k(   26) = (  -0.3164154   0.0000000  -0.1111966), wk =   0.0054870
        k(   27) = (  -0.3196212   0.0000000  -0.1667949), wk =   0.0054870
        k(   28) = (  -0.3228270   0.0000000  -0.2223932), wk =   0.0054870
        k(   29) = (  -0.2971807   0.0000000   0.2223932), wk =   0.0054870
        k(   30) = (  -0.3003865   0.0000000   0.1667949), wk =   0.0054870
        k(   31) = (  -0.3035923   0.0000000   0.1111966), wk =   0.0054870
        k(   32) = (  -0.3067981   0.0000000   0.0555983), wk =   0.0054870
        k(   33) = (  -0.4133385   0.0000000   0.0000000), wk =   0.0054870
        k(   34) = (  -0.4165443   0.0000000  -0.0555983), wk =   0.0054870
        k(   35) = (  -0.4197500   0.0000000  -0.1111966), wk =   0.0054870
        k(   36) = (  -0.4229558   0.0000000  -0.1667949), wk =   0.0054870
        k(   37) = (  -0.4261616   0.0000000  -0.2223932), wk =   0.0054870
        k(   38) = (  -0.4005154   0.0000000   0.2223932), wk =   0.0054870
        k(   39) = (  -0.4037211   0.0000000   0.1667949), wk =   0.0054870
        k(   40) = (  -0.4069269   0.0000000   0.1111966), wk =   0.0054870
        k(   41) = (  -0.4101327   0.0000000   0.0555983), wk =   0.0054870
        k(   42) = (  -0.0000000  -0.1111111   0.0000000), wk =   0.0054870
        k(   43) = (  -0.0032058  -0.1111111  -0.0555983), wk =   0.0109739
        k(   44) = (  -0.0064116  -0.1111111  -0.1111966), wk =   0.0109739
        k(   45) = (  -0.0096173  -0.1111111  -0.1667949), wk =   0.0109739
        k(   46) = (  -0.0128231  -0.1111111  -0.2223932), wk =   0.0109739
        k(   47) = (  -0.1033346  -0.1111111   0.0000000), wk =   0.0109739
        k(   48) = (  -0.1065404  -0.1111111  -0.0555983), wk =   0.0109739
        k(   49) = (  -0.1097462  -0.1111111  -0.1111966), wk =   0.0109739
        k(   50) = (  -0.1129520  -0.1111111  -0.1667949), wk =   0.0109739
        k(   51) = (  -0.1161577  -0.1111111  -0.2223932), wk =   0.0109739
        k(   52) = (  -0.0905115  -0.1111111   0.2223932), wk =   0.0109739
        k(   53) = (  -0.0937173  -0.1111111   0.1667949), wk =   0.0109739
        k(   54) = (  -0.0969231  -0.1111111   0.1111966), wk =   0.0109739
        k(   55) = (  -0.1001288  -0.1111111   0.0555983), wk =   0.0109739
        k(   56) = (  -0.2066692  -0.1111111   0.0000000), wk =   0.0109739
        k(   57) = (  -0.2098750  -0.1111111  -0.0555983), wk =   0.0109739
        k(   58) = (  -0.2130808  -0.1111111  -0.1111966), wk =   0.0109739
        k(   59) = (  -0.2162866  -0.1111111  -0.1667949), wk =   0.0109739
        k(   60) = (  -0.2194924  -0.1111111  -0.2223932), wk =   0.0109739
        k(   61) = (  -0.1938461  -0.1111111   0.2223932), wk =   0.0109739
        k(   62) = (  -0.1970519  -0.1111111   0.1667949), wk =   0.0109739
        k(   63) = (  -0.2002577  -0.1111111   0.1111966), wk =   0.0109739
        k(   64) = (  -0.2034635  -0.1111111   0.0555983), wk =   0.0109739
        k(   65) = (  -0.3100039  -0.1111111   0.0000000), wk =   0.0109739
        k(   66) = (  -0.3132096  -0.1111111  -0.0555983), wk =   0.0109739
        k(   67) = (  -0.3164154  -0.1111111  -0.1111966), wk =   0.0109739
        k(   68) = (  -0.3196212  -0.1111111  -0.1667949), wk =   0.0109739
        k(   69) = (  -0.3228270  -0.1111111  -0.2223932), wk =   0.0109739
        k(   70) = (  -0.2971807  -0.1111111   0.2223932), wk =   0.0109739
        k(   71) = (  -0.3003865  -0.1111111   0.1667949), wk =   0.0109739
        k(   72) = (  -0.3035923  -0.1111111   0.1111966), wk =   0.0109739
        k(   73) = (  -0.3067981  -0.1111111   0.0555983), wk =   0.0109739
        k(   74) = (  -0.4133385  -0.1111111   0.0000000), wk =   0.0109739
        k(   75) = (  -0.4165443  -0.1111111  -0.0555983), wk =   0.0109739
        k(   76) = (  -0.4197500  -0.1111111  -0.1111966), wk =   0.0109739
        k(   77) = (  -0.4229558  -0.1111111  -0.1667949), wk =   0.0109739
        k(   78) = (  -0.4261616  -0.1111111  -0.2223932), wk =   0.0109739
        k(   79) = (  -0.4005154  -0.1111111   0.2223932), wk =   0.0109739
        k(   80) = (  -0.4037211  -0.1111111   0.1667949), wk =   0.0109739
        k(   81) = (  -0.4069269  -0.1111111   0.1111966), wk =   0.0109739
        k(   82) = (  -0.4101327  -0.1111111   0.0555983), wk =   0.0109739
        k(   83) = (  -0.0000000  -0.2222222   0.0000000), wk =   0.0054870
        k(   84) = (  -0.0032058  -0.2222222  -0.0555983), wk =   0.0109739
        k(   85) = (  -0.0064116  -0.2222222  -0.1111966), wk =   0.0109739
        k(   86) = (  -0.0096173  -0.2222222  -0.1667949), wk =   0.0109739
        k(   87) = (  -0.0128231  -0.2222222  -0.2223932), wk =   0.0109739
        k(   88) = (  -0.1033346  -0.2222222   0.0000000), wk =   0.0109739
        k(   89) = (  -0.1065404  -0.2222222  -0.0555983), wk =   0.0109739
        k(   90) = (  -0.1097462  -0.2222222  -0.1111966), wk =   0.0109739
        k(   91) = (  -0.1129520  -0.2222222  -0.1667949), wk =   0.0109739
        k(   92) = (  -0.1161577  -0.2222222  -0.2223932), wk =   0.0109739
        k(   93) = (  -0.0905115  -0.2222222   0.2223932), wk =   0.0109739
        k(   94) = (  -0.0937173  -0.2222222   0.1667949), wk =   0.0109739
        k(   95) = (  -0.0969231  -0.2222222   0.1111966), wk =   0.0109739
        k(   96) = (  -0.1001288  -0.2222222   0.0555983), wk =   0.0109739
        k(   97) = (  -0.2066692  -0.2222222   0.0000000), wk =   0.0109739
        k(   98) = (  -0.2098750  -0.2222222  -0.0555983), wk =   0.0109739
        k(   99) = (  -0.2130808  -0.2222222  -0.1111966), wk =   0.0109739
        k(  100) = (  -0.2162866  -0.2222222  -0.1667949), wk =   0.0109739
        k(  101) = (  -0.2194924  -0.2222222  -0.2223932), wk =   0.0109739
        k(  102) = (  -0.1938461  -0.2222222   0.2223932), wk =   0.0109739
        k(  103) = (  -0.1970519  -0.2222222   0.1667949), wk =   0.0109739
        k(  104) = (  -0.2002577  -0.2222222   0.1111966), wk =   0.0109739
        k(  105) = (  -0.2034635  -0.2222222   0.0555983), wk =   0.0109739
        k(  106) = (  -0.3100039  -0.2222222   0.0000000), wk =   0.0109739
        k(  107) = (  -0.3132096  -0.2222222  -0.0555983), wk =   0.0109739
        k(  108) = (  -0.3164154  -0.2222222  -0.1111966), wk =   0.0109739
        k(  109) = (  -0.3196212  -0.2222222  -0.1667949), wk =   0.0109739
        k(  110) = (  -0.3228270  -0.2222222  -0.2223932), wk =   0.0109739
        k(  111) = (  -0.2971807  -0.2222222   0.2223932), wk =   0.0109739
        k(  112) = (  -0.3003865  -0.2222222   0.1667949), wk =   0.0109739
        k(  113) = (  -0.3035923  -0.2222222   0.1111966), wk =   0.0109739
        k(  114) = (  -0.3067981  -0.2222222   0.0555983), wk =   0.0109739
        k(  115) = (  -0.4133385  -0.2222222   0.0000000), wk =   0.0109739
        k(  116) = (  -0.4165443  -0.2222222  -0.0555983), wk =   0.0109739
        k(  117) = (  -0.4197500  -0.2222222  -0.1111966), wk =   0.0109739
        k(  118) = (  -0.4229558  -0.2222222  -0.1667949), wk =   0.0109739
        k(  119) = (  -0.4261616  -0.2222222  -0.2223932), wk =   0.0109739
        k(  120) = (  -0.4005154  -0.2222222   0.2223932), wk =   0.0109739
        k(  121) = (  -0.4037211  -0.2222222   0.1667949), wk =   0.0109739
        k(  122) = (  -0.4069269  -0.2222222   0.1111966), wk =   0.0109739
        k(  123) = (  -0.4101327  -0.2222222   0.0555983), wk =   0.0109739
        k(  124) = (  -0.0000000  -0.3333333   0.0000000), wk =   0.0054870
        k(  125) = (  -0.0032058  -0.3333333  -0.0555983), wk =   0.0109739
        k(  126) = (  -0.0064116  -0.3333333  -0.1111966), wk =   0.0109739
        k(  127) = (  -0.0096173  -0.3333333  -0.1667949), wk =   0.0109739
        k(  128) = (  -0.0128231  -0.3333333  -0.2223932), wk =   0.0109739
        k(  129) = (  -0.1033346  -0.3333333   0.0000000), wk =   0.0109739
        k(  130) = (  -0.1065404  -0.3333333  -0.0555983), wk =   0.0109739
        k(  131) = (  -0.1097462  -0.3333333  -0.1111966), wk =   0.0109739
        k(  132) = (  -0.1129520  -0.3333333  -0.1667949), wk =   0.0109739
        k(  133) = (  -0.1161577  -0.3333333  -0.2223932), wk =   0.0109739
        k(  134) = (  -0.0905115  -0.3333333   0.2223932), wk =   0.0109739
        k(  135) = (  -0.0937173  -0.3333333   0.1667949), wk =   0.0109739
        k(  136) = (  -0.0969231  -0.3333333   0.1111966), wk =   0.0109739
        k(  137) = (  -0.1001288  -0.3333333   0.0555983), wk =   0.0109739
        k(  138) = (  -0.2066692  -0.3333333   0.0000000), wk =   0.0109739
        k(  139) = (  -0.2098750  -0.3333333  -0.0555983), wk =   0.0109739
        k(  140) = (  -0.2130808  -0.3333333  -0.1111966), wk =   0.0109739
        k(  141) = (  -0.2162866  -0.3333333  -0.1667949), wk =   0.0109739
        k(  142) = (  -0.2194924  -0.3333333  -0.2223932), wk =   0.0109739
        k(  143) = (  -0.1938461  -0.3333333   0.2223932), wk =   0.0109739
        k(  144) = (  -0.1970519  -0.3333333   0.1667949), wk =   0.0109739
        k(  145) = (  -0.2002577  -0.3333333   0.1111966), wk =   0.0109739
        k(  146) = (  -0.2034635  -0.3333333   0.0555983), wk =   0.0109739
        k(  147) = (  -0.3100039  -0.3333333   0.0000000), wk =   0.0109739
        k(  148) = (  -0.3132096  -0.3333333  -0.0555983), wk =   0.0109739
        k(  149) = (  -0.3164154  -0.3333333  -0.1111966), wk =   0.0109739
        k(  150) = (  -0.3196212  -0.3333333  -0.1667949), wk =   0.0109739
        k(  151) = (  -0.3228270  -0.3333333  -0.2223932), wk =   0.0109739
        k(  152) = (  -0.2971807  -0.3333333   0.2223932), wk =   0.0109739
        k(  153) = (  -0.3003865  -0.3333333   0.1667949), wk =   0.0109739
        k(  154) = (  -0.3035923  -0.3333333   0.1111966), wk =   0.0109739
        k(  155) = (  -0.3067981  -0.3333333   0.0555983), wk =   0.0109739
        k(  156) = (  -0.4133385  -0.3333333   0.0000000), wk =   0.0109739
        k(  157) = (  -0.4165443  -0.3333333  -0.0555983), wk =   0.0109739
        k(  158) = (  -0.4197500  -0.3333333  -0.1111966), wk =   0.0109739
        k(  159) = (  -0.4229558  -0.3333333  -0.1667949), wk =   0.0109739
        k(  160) = (  -0.4261616  -0.3333333  -0.2223932), wk =   0.0109739
        k(  161) = (  -0.4005154  -0.3333333   0.2223932), wk =   0.0109739
        k(  162) = (  -0.4037211  -0.3333333   0.1667949), wk =   0.0109739
        k(  163) = (  -0.4069269  -0.3333333   0.1111966), wk =   0.0109739
        k(  164) = (  -0.4101327  -0.3333333   0.0555983), wk =   0.0109739
        k(  165) = (  -0.0000000  -0.4444444   0.0000000), wk =   0.0054870
        k(  166) = (  -0.0032058  -0.4444444  -0.0555983), wk =   0.0109739
        k(  167) = (  -0.0064116  -0.4444444  -0.1111966), wk =   0.0109739
        k(  168) = (  -0.0096173  -0.4444444  -0.1667949), wk =   0.0109739
        k(  169) = (  -0.0128231  -0.4444444  -0.2223932), wk =   0.0109739
        k(  170) = (  -0.1033346  -0.4444444   0.0000000), wk =   0.0109739
        k(  171) = (  -0.1065404  -0.4444444  -0.0555983), wk =   0.0109739
        k(  172) = (  -0.1097462  -0.4444444  -0.1111966), wk =   0.0109739
        k(  173) = (  -0.1129520  -0.4444444  -0.1667949), wk =   0.0109739
        k(  174) = (  -0.1161577  -0.4444444  -0.2223932), wk =   0.0109739
        k(  175) = (  -0.0905115  -0.4444444   0.2223932), wk =   0.0109739
        k(  176) = (  -0.0937173  -0.4444444   0.1667949), wk =   0.0109739
        k(  177) = (  -0.0969231  -0.4444444   0.1111966), wk =   0.0109739
        k(  178) = (  -0.1001288  -0.4444444   0.0555983), wk =   0.0109739
        k(  179) = (  -0.2066692  -0.4444444   0.0000000), wk =   0.0109739
        k(  180) = (  -0.2098750  -0.4444444  -0.0555983), wk =   0.0109739
        k(  181) = (  -0.2130808  -0.4444444  -0.1111966), wk =   0.0109739
        k(  182) = (  -0.2162866  -0.4444444  -0.1667949), wk =   0.0109739
        k(  183) = (  -0.2194924  -0.4444444  -0.2223932), wk =   0.0109739
        k(  184) = (  -0.1938461  -0.4444444   0.2223932), wk =   0.0109739
        k(  185) = (  -0.1970519  -0.4444444   0.1667949), wk =   0.0109739
        k(  186) = (  -0.2002577  -0.4444444   0.1111966), wk =   0.0109739
        k(  187) = (  -0.2034635  -0.4444444   0.0555983), wk =   0.0109739
        k(  188) = (  -0.3100039  -0.4444444   0.0000000), wk =   0.0109739
        k(  189) = (  -0.3132096  -0.4444444  -0.0555983), wk =   0.0109739
        k(  190) = (  -0.3164154  -0.4444444  -0.1111966), wk =   0.0109739
        k(  191) = (  -0.3196212  -0.4444444  -0.1667949), wk =   0.0109739
        k(  192) = (  -0.3228270  -0.4444444  -0.2223932), wk =   0.0109739
        k(  193) = (  -0.2971807  -0.4444444   0.2223932), wk =   0.0109739
        k(  194) = (  -0.3003865  -0.4444444   0.1667949), wk =   0.0109739
        k(  195) = (  -0.3035923  -0.4444444   0.1111966), wk =   0.0109739
        k(  196) = (  -0.3067981  -0.4444444   0.0555983), wk =   0.0109739
        k(  197) = (  -0.4133385  -0.4444444   0.0000000), wk =   0.0109739
        k(  198) = (  -0.4165443  -0.4444444  -0.0555983), wk =   0.0109739
        k(  199) = (  -0.4197500  -0.4444444  -0.1111966), wk =   0.0109739
        k(  200) = (  -0.4229558  -0.4444444  -0.1667949), wk =   0.0109739
        k(  201) = (  -0.4261616  -0.4444444  -0.2223932), wk =   0.0109739
        k(  202) = (  -0.4005154  -0.4444444   0.2223932), wk =   0.0109739
        k(  203) = (  -0.4037211  -0.4444444   0.1667949), wk =   0.0109739
        k(  204) = (  -0.4069269  -0.4444444   0.1111966), wk =   0.0109739
        k(  205) = (  -0.4101327  -0.4444444   0.0555983), wk =   0.0109739

                       cryst. coord.
        k(    1) = (   0.0000000   0.0000000   0.0000000), wk =   0.0027435
        k(    2) = (   0.0000000  -0.0000000   0.1111111), wk =   0.0054870
        k(    3) = (   0.0000000  -0.0000000   0.2222222), wk =   0.0054870
        k(    4) = (   0.0000000  -0.0000000   0.3333333), wk =   0.0054870
        k(    5) = (   0.0000000  -0.0000000   0.4444444), wk =   0.0054870
        k(    6) = (   0.0000000   0.1111111   0.0000000), wk =   0.0054870
        k(    7) = (   0.0000000   0.1111111   0.1111111), wk =   0.0054870
        k(    8) = (   0.0000000   0.1111111   0.2222222), wk =   0.0054870
        k(    9) = (   0.0000000   0.1111111   0.3333333), wk =   0.0054870
        k(   10) = (   0.0000000   0.1111111   0.4444444), wk =   0.0054870
        k(   11) = (   0.0000000   0.1111111  -0.4444444), wk =   0.0054870
        k(   12) = (   0.0000000   0.1111111  -0.3333333), wk =   0.0054870
        k(   13) = (   0.0000000   0.1111111  -0.2222222), wk =   0.0054870
        k(   14) = (   0.0000000   0.1111111  -0.1111111), wk =   0.0054870
        k(   15) = (   0.0000000   0.2222222   0.0000000), wk =   0.0054870
        k(   16) = (   0.0000000   0.2222222   0.1111111), wk =   0.0054870
        k(   17) = (   0.0000000   0.2222222   0.2222222), wk =   0.0054870
        k(   18) = (   0.0000000   0.2222222   0.3333333), wk =   0.0054870
        k(   19) = (   0.0000000   0.2222222   0.4444444), wk =   0.0054870
        k(   20) = (   0.0000000   0.2222222  -0.4444444), wk =   0.0054870
        k(   21) = (   0.0000000   0.2222222  -0.3333333), wk =   0.0054870
        k(   22) = (   0.0000000   0.2222222  -0.2222222), wk =   0.0054870
        k(   23) = (   0.0000000   0.2222222  -0.1111111), wk =   0.0054870
        k(   24) = (   0.0000000   0.3333333   0.0000000), wk =   0.0054870
        k(   25) = (   0.0000000   0.3333333   0.1111111), wk =   0.0054870
        k(   26) = (   0.0000000   0.3333333   0.2222222), wk =   0.0054870
        k(   27) = (   0.0000000   0.3333333   0.3333333), wk =   0.0054870
        k(   28) = (   0.0000000   0.3333333   0.4444444), wk =   0.0054870
        k(   29) = (   0.0000000   0.3333333  -0.4444444), wk =   0.0054870
        k(   30) = (   0.0000000   0.3333333  -0.3333333), wk =   0.0054870
        k(   31) = (   0.0000000   0.3333333  -0.2222222), wk =   0.0054870
        k(   32) = (   0.0000000   0.3333333  -0.1111111), wk =   0.0054870
        k(   33) = (   0.0000000   0.4444444   0.0000000), wk =   0.0054870
        k(   34) = (   0.0000000   0.4444444   0.1111111), wk =   0.0054870
        k(   35) = (   0.0000000   0.4444444   0.2222222), wk =   0.0054870
        k(   36) = (   0.0000000   0.4444444   0.3333333), wk =   0.0054870
        k(   37) = (   0.0000000   0.4444444   0.4444444), wk =   0.0054870
        k(   38) = (   0.0000000   0.4444444  -0.4444444), wk =   0.0054870
        k(   39) = (   0.0000000   0.4444444  -0.3333333), wk =   0.0054870
        k(   40) = (   0.0000000   0.4444444  -0.2222222), wk =   0.0054870
        k(   41) = (   0.0000000   0.4444444  -0.1111111), wk =   0.0054870
        k(   42) = (   0.1111111   0.0000000  -0.0000000), wk =   0.0054870
        k(   43) = (   0.1111111  -0.0000000   0.1111111), wk =   0.0109739
        k(   44) = (   0.1111111  -0.0000000   0.2222222), wk =   0.0109739
        k(   45) = (   0.1111111  -0.0000000   0.3333333), wk =   0.0109739
        k(   46) = (   0.1111111  -0.0000000   0.4444444), wk =   0.0109739
        k(   47) = (   0.1111111   0.1111111  -0.0000000), wk =   0.0109739
        k(   48) = (   0.1111111   0.1111111   0.1111111), wk =   0.0109739
        k(   49) = (   0.1111111   0.1111111   0.2222222), wk =   0.0109739
        k(   50) = (   0.1111111   0.1111111   0.3333333), wk =   0.0109739
        k(   51) = (   0.1111111   0.1111111   0.4444444), wk =   0.0109739
        k(   52) = (   0.1111111   0.1111111  -0.4444444), wk =   0.0109739
        k(   53) = (   0.1111111   0.1111111  -0.3333333), wk =   0.0109739
        k(   54) = (   0.1111111   0.1111111  -0.2222222), wk =   0.0109739
        k(   55) = (   0.1111111   0.1111111  -0.1111111), wk =   0.0109739
        k(   56) = (   0.1111111   0.2222222  -0.0000000), wk =   0.0109739
        k(   57) = (   0.1111111   0.2222222   0.1111111), wk =   0.0109739
        k(   58) = (   0.1111111   0.2222222   0.2222222), wk =   0.0109739
        k(   59) = (   0.1111111   0.2222222   0.3333333), wk =   0.0109739
        k(   60) = (   0.1111111   0.2222222   0.4444444), wk =   0.0109739
        k(   61) = (   0.1111111   0.2222222  -0.4444444), wk =   0.0109739
        k(   62) = (   0.1111111   0.2222222  -0.3333333), wk =   0.0109739
        k(   63) = (   0.1111111   0.2222222  -0.2222222), wk =   0.0109739
        k(   64) = (   0.1111111   0.2222222  -0.1111111), wk =   0.0109739
        k(   65) = (   0.1111111   0.3333333  -0.0000000), wk =   0.0109739
        k(   66) = (   0.1111111   0.3333333   0.1111111), wk =   0.0109739
        k(   67) = (   0.1111111   0.3333333   0.2222222), wk =   0.0109739
        k(   68) = (   0.1111111   0.3333333   0.3333333), wk =   0.0109739
        k(   69) = (   0.1111111   0.3333333   0.4444444), wk =   0.0109739
        k(   70) = (   0.1111111   0.3333333  -0.4444444), wk =   0.0109739
        k(   71) = (   0.1111111   0.3333333  -0.3333333), wk =   0.0109739
        k(   72) = (   0.1111111   0.3333333  -0.2222222), wk =   0.0109739
        k(   73) = (   0.1111111   0.3333333  -0.1111111), wk =   0.0109739
        k(   74) = (   0.1111111   0.4444444  -0.0000000), wk =   0.0109739
        k(   75) = (   0.1111111   0.4444444   0.1111111), wk =   0.0109739
        k(   76) = (   0.1111111   0.4444444   0.2222222), wk =   0.0109739
        k(   77) = (   0.1111111   0.4444444   0.3333333), wk =   0.0109739
        k(   78) = (   0.1111111   0.4444444   0.4444444), wk =   0.0109739
        k(   79) = (   0.1111111   0.4444444  -0.4444444), wk =   0.0109739
        k(   80) = (   0.1111111   0.4444444  -0.3333333), wk =   0.0109739
        k(   81) = (   0.1111111   0.4444444  -0.2222222), wk =   0.0109739
        k(   82) = (   0.1111111   0.4444444  -0.1111111), wk =   0.0109739
        k(   83) = (   0.2222222   0.0000000  -0.0000000), wk =   0.0054870
        k(   84) = (   0.2222222  -0.0000000   0.1111111), wk =   0.0109739
        k(   85) = (   0.2222222  -0.0000000   0.2222222), wk =   0.0109739
        k(   86) = (   0.2222222  -0.0000000   0.3333333), wk =   0.0109739
        k(   87) = (   0.2222222  -0.0000000   0.4444444), wk =   0.0109739
        k(   88) = (   0.2222222   0.1111111  -0.0000000), wk =   0.0109739
        k(   89) = (   0.2222222   0.1111111   0.1111111), wk =   0.0109739
        k(   90) = (   0.2222222   0.1111111   0.2222222), wk =   0.0109739
        k(   91) = (   0.2222222   0.1111111   0.3333333), wk =   0.0109739
        k(   92) = (   0.2222222   0.1111111   0.4444444), wk =   0.0109739
        k(   93) = (   0.2222222   0.1111111  -0.4444444), wk =   0.0109739
        k(   94) = (   0.2222222   0.1111111  -0.3333333), wk =   0.0109739
        k(   95) = (   0.2222222   0.1111111  -0.2222222), wk =   0.0109739
        k(   96) = (   0.2222222   0.1111111  -0.1111111), wk =   0.0109739
        k(   97) = (   0.2222222   0.2222222  -0.0000000), wk =   0.0109739
        k(   98) = (   0.2222222   0.2222222   0.1111111), wk =   0.0109739
        k(   99) = (   0.2222222   0.2222222   0.2222222), wk =   0.0109739
        k(  100) = (   0.2222222   0.2222222   0.3333333), wk =   0.0109739
        k(  101) = (   0.2222222   0.2222222   0.4444444), wk =   0.0109739
        k(  102) = (   0.2222222   0.2222222  -0.4444444), wk =   0.0109739
        k(  103) = (   0.2222222   0.2222222  -0.3333333), wk =   0.0109739
        k(  104) = (   0.2222222   0.2222222  -0.2222222), wk =   0.0109739
        k(  105) = (   0.2222222   0.2222222  -0.1111111), wk =   0.0109739
        k(  106) = (   0.2222222   0.3333333  -0.0000000), wk =   0.0109739
        k(  107) = (   0.2222222   0.3333333   0.1111111), wk =   0.0109739
        k(  108) = (   0.2222222   0.3333333   0.2222222), wk =   0.0109739
        k(  109) = (   0.2222222   0.3333333   0.3333333), wk =   0.0109739
        k(  110) = (   0.2222222   0.3333333   0.4444444), wk =   0.0109739
        k(  111) = (   0.2222222   0.3333333  -0.4444444), wk =   0.0109739
        k(  112) = (   0.2222222   0.3333333  -0.3333333), wk =   0.0109739
        k(  113) = (   0.2222222   0.3333333  -0.2222222), wk =   0.0109739
        k(  114) = (   0.2222222   0.3333333  -0.1111111), wk =   0.0109739
        k(  115) = (   0.2222222   0.4444444  -0.0000000), wk =   0.0109739
        k(  116) = (   0.2222222   0.4444444   0.1111111), wk =   0.0109739
        k(  117) = (   0.2222222   0.4444444   0.2222222), wk =   0.0109739
        k(  118) = (   0.2222222   0.4444444   0.3333333), wk =   0.0109739
        k(  119) = (   0.2222222   0.4444444   0.4444444), wk =   0.0109739
        k(  120) = (   0.2222222   0.4444444  -0.4444444), wk =   0.0109739
        k(  121) = (   0.2222222   0.4444444  -0.3333333), wk =   0.0109739
        k(  122) = (   0.2222222   0.4444444  -0.2222222), wk =   0.0109739
        k(  123) = (   0.2222222   0.4444444  -0.1111111), wk =   0.0109739
        k(  124) = (   0.3333333   0.0000000  -0.0000000), wk =   0.0054870
        k(  125) = (   0.3333333  -0.0000000   0.1111111), wk =   0.0109739
        k(  126) = (   0.3333333  -0.0000000   0.2222222), wk =   0.0109739
        k(  127) = (   0.3333333  -0.0000000   0.3333333), wk =   0.0109739
        k(  128) = (   0.3333333  -0.0000000   0.4444444), wk =   0.0109739
        k(  129) = (   0.3333333   0.1111111  -0.0000000), wk =   0.0109739
        k(  130) = (   0.3333333   0.1111111   0.1111111), wk =   0.0109739
        k(  131) = (   0.3333333   0.1111111   0.2222222), wk =   0.0109739
        k(  132) = (   0.3333333   0.1111111   0.3333333), wk =   0.0109739
        k(  133) = (   0.3333333   0.1111111   0.4444444), wk =   0.0109739
        k(  134) = (   0.3333333   0.1111111  -0.4444444), wk =   0.0109739
        k(  135) = (   0.3333333   0.1111111  -0.3333333), wk =   0.0109739
        k(  136) = (   0.3333333   0.1111111  -0.2222222), wk =   0.0109739
        k(  137) = (   0.3333333   0.1111111  -0.1111111), wk =   0.0109739
        k(  138) = (   0.3333333   0.2222222  -0.0000000), wk =   0.0109739
        k(  139) = (   0.3333333   0.2222222   0.1111111), wk =   0.0109739
        k(  140) = (   0.3333333   0.2222222   0.2222222), wk =   0.0109739
        k(  141) = (   0.3333333   0.2222222   0.3333333), wk =   0.0109739
        k(  142) = (   0.3333333   0.2222222   0.4444444), wk =   0.0109739
        k(  143) = (   0.3333333   0.2222222  -0.4444444), wk =   0.0109739
        k(  144) = (   0.3333333   0.2222222  -0.3333333), wk =   0.0109739
        k(  145) = (   0.3333333   0.2222222  -0.2222222), wk =   0.0109739
        k(  146) = (   0.3333333   0.2222222  -0.1111111), wk =   0.0109739
        k(  147) = (   0.3333333   0.3333333  -0.0000000), wk =   0.0109739
        k(  148) = (   0.3333333   0.3333333   0.1111111), wk =   0.0109739
        k(  149) = (   0.3333333   0.3333333   0.2222222), wk =   0.0109739
        k(  150) = (   0.3333333   0.3333333   0.3333333), wk =   0.0109739
        k(  151) = (   0.3333333   0.3333333   0.4444444), wk =   0.0109739
        k(  152) = (   0.3333333   0.3333333  -0.4444444), wk =   0.0109739
        k(  153) = (   0.3333333   0.3333333  -0.3333333), wk =   0.0109739
        k(  154) = (   0.3333333   0.3333333  -0.2222222), wk =   0.0109739
        k(  155) = (   0.3333333   0.3333333  -0.1111111), wk =   0.0109739
        k(  156) = (   0.3333333   0.4444444  -0.0000000), wk =   0.0109739
        k(  157) = (   0.3333333   0.4444444   0.1111111), wk =   0.0109739
        k(  158) = (   0.3333333   0.4444444   0.2222222), wk =   0.0109739
        k(  159) = (   0.3333333   0.4444444   0.3333333), wk =   0.0109739
        k(  160) = (   0.3333333   0.4444444   0.4444444), wk =   0.0109739
        k(  161) = (   0.3333333   0.4444444  -0.4444444), wk =   0.0109739
        k(  162) = (   0.3333333   0.4444444  -0.3333333), wk =   0.0109739
        k(  163) = (   0.3333333   0.4444444  -0.2222222), wk =   0.0109739
        k(  164) = (   0.3333333   0.4444444  -0.1111111), wk =   0.0109739
        k(  165) = (   0.4444444   0.0000000  -0.0000000), wk =   0.0054870
        k(  166) = (   0.4444444  -0.0000000   0.1111111), wk =   0.0109739
        k(  167) = (   0.4444444  -0.0000000   0.2222222), wk =   0.0109739
        k(  168) = (   0.4444444  -0.0000000   0.3333333), wk =   0.0109739
        k(  169) = (   0.4444444  -0.0000000   0.4444444), wk =   0.0109739
        k(  170) = (   0.4444444   0.1111111  -0.0000000), wk =   0.0109739
        k(  171) = (   0.4444444   0.1111111   0.1111111), wk =   0.0109739
        k(  172) = (   0.4444444   0.1111111   0.2222222), wk =   0.0109739
        k(  173) = (   0.4444444   0.1111111   0.3333333), wk =   0.0109739
        k(  174) = (   0.4444444   0.1111111   0.4444444), wk =   0.0109739
        k(  175) = (   0.4444444   0.1111111  -0.4444444), wk =   0.0109739
        k(  176) = (   0.4444444   0.1111111  -0.3333333), wk =   0.0109739
        k(  177) = (   0.4444444   0.1111111  -0.2222222), wk =   0.0109739
        k(  178) = (   0.4444444   0.1111111  -0.1111111), wk =   0.0109739
        k(  179) = (   0.4444444   0.2222222  -0.0000000), wk =   0.0109739
        k(  180) = (   0.4444444   0.2222222   0.1111111), wk =   0.0109739
        k(  181) = (   0.4444444   0.2222222   0.2222222), wk =   0.0109739
        k(  182) = (   0.4444444   0.2222222   0.3333333), wk =   0.0109739
        k(  183) = (   0.4444444   0.2222222   0.4444444), wk =   0.0109739
        k(  184) = (   0.4444444   0.2222222  -0.4444444), wk =   0.0109739
        k(  185) = (   0.4444444   0.2222222  -0.3333333), wk =   0.0109739
        k(  186) = (   0.4444444   0.2222222  -0.2222222), wk =   0.0109739
        k(  187) = (   0.4444444   0.2222222  -0.1111111), wk =   0.0109739
        k(  188) = (   0.4444444   0.3333333  -0.0000000), wk =   0.0109739
        k(  189) = (   0.4444444   0.3333333   0.1111111), wk =   0.0109739
        k(  190) = (   0.4444444   0.3333333   0.2222222), wk =   0.0109739
        k(  191) = (   0.4444444   0.3333333   0.3333333), wk =   0.0109739
        k(  192) = (   0.4444444   0.3333333   0.4444444), wk =   0.0109739
        k(  193) = (   0.4444444   0.3333333  -0.4444444), wk =   0.0109739
        k(  194) = (   0.4444444   0.3333333  -0.3333333), wk =   0.0109739
        k(  195) = (   0.4444444   0.3333333  -0.2222222), wk =   0.0109739
        k(  196) = (   0.4444444   0.3333333  -0.1111111), wk =   0.0109739
        k(  197) = (   0.4444444   0.4444444  -0.0000000), wk =   0.0109739
        k(  198) = (   0.4444444   0.4444444   0.1111111), wk =   0.0109739
        k(  199) = (   0.4444444   0.4444444   0.2222222), wk =   0.0109739
        k(  200) = (   0.4444444   0.4444444   0.3333333), wk =   0.0109739
        k(  201) = (   0.4444444   0.4444444   0.4444444), wk =   0.0109739
        k(  202) = (   0.4444444   0.4444444  -0.4444444), wk =   0.0109739
        k(  203) = (   0.4444444   0.4444444  -0.3333333), wk =   0.0109739
        k(  204) = (   0.4444444   0.4444444  -0.2222222), wk =   0.0109739
        k(  205) = (   0.4444444   0.4444444  -0.1111111), wk =   0.0109739

     Dense  grid:   989717 G-vectors     FFT dimensions: (  96, 108, 192)

     Smooth grid:   538691 G-vectors     FFT dimensions: (  80,  90, 160)

     Dynamical RAM for                 wfc:      16.44 MB

     Dynamical RAM for     wfc (w. buffer):    3386.73 MB

     Dynamical RAM for           str. fact:      11.33 MB

     Dynamical RAM for           local pot:       0.00 MB

     Dynamical RAM for          nlocal pot:      21.58 MB

     Dynamical RAM for                qrad:       0.51 MB

     Dynamical RAM for          rho,v,vnew:      22.72 MB

     Dynamical RAM for               rhoin:       7.57 MB

     Dynamical RAM for            rho*nmix:      60.41 MB

     Dynamical RAM for           G-vectors:      15.19 MB

     Dynamical RAM for          h,s,v(r/c):       0.75 MB

     Dynamical RAM for          <psi|beta>:       0.08 MB

     Dynamical RAM for                 psi:      32.88 MB

     Dynamical RAM for                hpsi:      32.88 MB

     Dynamical RAM for      wfcinit/wfcrot:     109.95 MB

     Estimated static dynamical RAM per process >       3.42 GB

     Estimated max dynamical RAM per process >       3.58 GB

     Estimated total dynamical RAM >      14.34 GB

     Initial potential from superposition of free atoms

     starting charge     117.3963, renormalised to     128.0000
     Starting wfcs are  212 randomized atomic wfcs
