### Running on host: gra337.graham.sharcnet

     Program PWSCF v.7.3.1 starts on 10Nov2024 at 19: 0: 6 

     This program is part of the open-source Quantum ESPRESSO suite
     for quantum simulation of materials; please cite
         "P. Giannozzi et al., J. Phys.:Condens. Matter 21 395502 (2009);
         "P. Giannozzi et al., J. Phys.:Condens. Matter 29 465901 (2017);
         "P. Giannozzi et al., J. Chem. Phys. 152 154105 (2020);
          URL http://www.quantum-espresso.org", 
     in publications or presentations arising from this work. More details at
     http://www.quantum-espresso.org/quote

     Parallel version (MPI & OpenMP), running on      16 processor cores
     Number of MPI processes:                 4
     Threads/MPI process:                     4

     MPI processes distributed on     1 nodes
     50122 MiB available memory on the printing compute node when the environment starts

     Reading input from LAC_scf_kpts-3.in

     Current dimensions of program PWSCF are:
     Max number of different atomic species (ntypx) = 10
     Max number of k-points (npk) =  40000
     Max angular momentum in pseudopotentials (lmaxx) =  4
     file Li.pbe-tm-gipaw-dc.UPF: wavefunction(s)  2S 2P 3S 3P renormalized
     WARNING: atomic wfc #  3 for atom typeAl has zero norm
     WARNING: atomic wfc #  4 for atom typeAl has zero norm
     Message from routine setup:
     using ibrav=0 with symmetry is DISCOURAGED, use correct ibrav instead

     R & G space division:  proc/nbgrp/npool/nimage =       4
     Subspace diagonalization in iterative solution of the eigenvalue problem:
     a serial algorithm will be used


     Parallelization info
     --------------------
     sticks:   dense  smooth     PW     G-vecs:    dense   smooth      PW
     Min        1940    1294    340               247428   134672   18153
     Max        1941    1295    341               247431   134674   18155
     Sum        7761    5179   1363               989717   538691   72615

     Using Slab Decomposition



     bravais-lattice index     =            0
     lattice parameter (alat)  =      12.2889  a.u.
     unit-cell volume          =    3987.9110 (a.u.)^3
     number of atoms/cell      =           24
     number of atomic types    =            3
     number of electrons       =       128.00
     number of Kohn-Sham states=           64
     kinetic-energy cutoff     =     100.0000  Ry
     charge density cutoff     =     600.0000  Ry
     scf convergence threshold =      1.0E-06
     mixing beta               =       0.4000
     number of iterations used =            8  plain     mixing
     Exchange-correlation=  SLA  PW   PBX  PBC
                           (   1   4   3   4   0   0   0)

     celldm(1)=  12.288889  celldm(2)=   0.000000  celldm(3)=   0.000000
     celldm(4)=   0.000000  celldm(5)=   0.000000  celldm(6)=   0.000000

     crystal axes: (cart. coord. in units of alat)
               a(1) = (  -0.000000  -1.000000  -0.000000 )  
               a(2) = (  -1.075255   0.000000   0.061999 )  
               a(3) = (   0.000000   0.000000  -1.998462 )  

     reciprocal axes: (cart. coord. in units 2 pi/alat)
               b(1) = ( -0.000000 -1.000000 -0.000000 )  
               b(2) = ( -0.930012  0.000000  0.000000 )  
               b(3) = ( -0.028852  0.000000 -0.500385 )  


     PseudoPot. # 1 for Li read from file:
     /home/cgurwell/projects/rrg-ravh011/cgurwell/pseudo/Li.pbe-tm-gipaw-dc.UPF
     MD5 check sum: 258bf1e32d815cbe0990be85d5d6a6e5
     Pseudo is Norm-conserving + core correction, Zval =  1.0
     Generated by new atomic code, or converted to UPF format
     Using radial grid of 1371 points,  1 beta functions with: 
                l(1) =   0

     PseudoPot. # 2 for Al read from file:
     /home/cgurwell/projects/rrg-ravh011/cgurwell/pseudo/Al.pbe-tm-gipaw-dc.UPF
     MD5 check sum: efdf9c81b1c08458edd46fe92d869955
     Pseudo is Norm-conserving, Zval =  3.0
     Generated by new atomic code, or converted to UPF format
     Using radial grid of 1519 points,  2 beta functions with: 
                l(1) =   0
                l(2) =   1

     PseudoPot. # 3 for Cl read from file:
     /home/cgurwell/projects/rrg-ravh011/cgurwell/pseudo/Cl.pbe-tm-gipaw.UPF
     MD5 check sum: 6263502ce953d769893a136fffc16e2a
     Pseudo is Norm-conserving, Zval =  7.0
     Generated by new atomic code, or converted to UPF format
     Using radial grid of 1157 points,  2 beta functions with: 
                l(1) =   0
                l(2) =   1

     atomic species   valence    mass     pseudopotential
     Li                1.00     6.94100     Li( 1.00)
     Al                3.00    26.98154     Al( 1.00)
     Cl                7.00    35.45300     Cl( 1.00)

      4 Sym. Ops., with inversion, found ( 2 have fractional translation)


                                    s                        frac. trans.

      isym =  1     identity                                     

 cryst.   s( 1) = (     1          0          0      )
                  (     0          1          0      )
                  (     0          0          1      )

 cart.    s( 1) = (  1.0000000  0.0000000  0.0000000 )
                  (  0.0000000  1.0000000  0.0000000 )
                  (  0.0000000  0.0000000  1.0000000 )


      isym =  2     180 deg rotation - cart. axis [0,1,0]        

 cryst.   s( 2) = (     1          0          0      )    f =( -0.5000000 )
                  (     0         -1          0      )       (  0.0000000 )
                  (     0          0         -1      )       (  0.5000000 )

 cart.    s( 2) = ( -1.0000000  0.0000000  0.0000000 )    f =(  0.0000000 )
                  (  0.0000000  1.0000000  0.0000000 )       (  0.5000000 )
                  ( -0.0000000  0.0000000 -1.0000000 )       ( -0.9992311 )


      isym =  3     inversion                                    

 cryst.   s( 3) = (    -1          0          0      )
                  (     0         -1          0      )
                  (     0          0         -1      )

 cart.    s( 3) = ( -1.0000000  0.0000000  0.0000000 )
                  (  0.0000000 -1.0000000  0.0000000 )
                  ( -0.0000000  0.0000000 -1.0000000 )


      isym =  4     inv. 180 deg rotation - cart. axis [0,1,0]   

 cryst.   s( 4) = (    -1          0          0      )    f =(  0.5000000 )
                  (     0          1          0      )       (  0.0000000 )
                  (     0          0          1      )       ( -0.5000000 )

 cart.    s( 4) = (  1.0000000  0.0000000  0.0000000 )    f =( -0.0000000 )
                  (  0.0000000 -1.0000000  0.0000000 )       ( -0.5000000 )
                  (  0.0000000  0.0000000  1.0000000 )       (  0.9992311 )


   Cartesian axes

     site n.     atom                  positions (alat units)
         1        Li     tau(   1) = (  -0.9056877  -0.4850000  -0.2183702  )
         2        Li     tau(   2) = (  -0.1695678  -0.9850000  -0.7188621  )
         3        Li     tau(   3) = (  -0.1695678  -0.5150000  -1.7180932  )
         4        Li     tau(   4) = (  -0.9056877  -0.0150000  -1.2176013  )
         5        Al     tau(   5) = (  -0.3162326  -0.8217000  -1.1827820  )
         6        Al     tau(   6) = (  -0.7590228  -0.3217000  -1.7529125  )
         7        Al     tau(   7) = (  -0.7590228  -0.1783000  -0.7536814  )
         8        Al     tau(   8) = (  -0.3162326  -0.6783000  -0.1835509  )
         9        Cl     tau(   9) = (  -0.3292432  -0.6832000  -0.8869788  )
        10        Cl     tau(  10) = (  -0.7460122  -0.1832000  -0.0502534  )
        11        Cl     tau(  11) = (  -0.7460122  -0.3168000  -1.0494846  )
        12        Cl     tau(  12) = (  -0.3292432  -0.8168000  -1.8862100  )
        13        Cl     tau(  13) = (  -0.2058039  -0.1281000  -1.1300747  )
        14        Cl     tau(  14) = (  -0.8694515  -0.6281000  -1.8056198  )
        15        Cl     tau(  15) = (  -0.8694515  -0.8719000  -0.8063887  )
        16        Cl     tau(  16) = (  -0.2058039  -0.3719000  -0.1308436  )
        17        Cl     tau(  17) = (  -0.0801065  -0.6812000  -1.3666060  )
        18        Cl     tau(  18) = (  -0.9951489  -0.1812000  -1.5690886  )
        19        Cl     tau(  19) = (  -0.9951489  -0.3188000  -0.5698574  )
        20        Cl     tau(  20) = (  -0.0801065  -0.8188000  -0.3673748  )
        21        Cl     tau(  21) = (  -0.6024656  -0.8140000  -1.3383055  )
        22        Cl     tau(  22) = (  -0.4727898  -0.3140000  -1.5973890  )
        23        Cl     tau(  23) = (  -0.4727898  -0.1860000  -0.5981579  )
        24        Cl     tau(  24) = (  -0.6024656  -0.6860000  -0.3390744  )

   Crystallographic axes

     site n.     atom                  positions (cryst. coord.)
         1        Li     tau(   1) = (  0.4850000  0.8423000  0.1354000  )
         2        Li     tau(   2) = (  0.9850000  0.1577000  0.3646000  )
         3        Li     tau(   3) = (  0.5150000  0.1577000  0.8646000  )
         4        Li     tau(   4) = (  0.0150000  0.8423000  0.6354000  )
         5        Al     tau(   5) = (  0.8217000  0.2941000  0.6009700  )
         6        Al     tau(   6) = (  0.3217000  0.7059000  0.8990300  )
         7        Al     tau(   7) = (  0.1783000  0.7059000  0.3990300  )
         8        Al     tau(   8) = (  0.6783000  0.2941000  0.1009700  )
         9        Cl     tau(   9) = (  0.6832000  0.3062000  0.4533300  )
        10        Cl     tau(  10) = (  0.1832000  0.6938000  0.0466700  )
        11        Cl     tau(  11) = (  0.3168000  0.6938000  0.5466700  )
        12        Cl     tau(  12) = (  0.8168000  0.3062000  0.9533300  )
        13        Cl     tau(  13) = (  0.1281000  0.1914000  0.5714100  )
        14        Cl     tau(  14) = (  0.6281000  0.8086000  0.9285900  )
        15        Cl     tau(  15) = (  0.8719000  0.8086000  0.4285900  )
        16        Cl     tau(  16) = (  0.3719000  0.1914000  0.0714100  )
        17        Cl     tau(  17) = (  0.6812000  0.0745000  0.6861400  )
        18        Cl     tau(  18) = (  0.1812000  0.9255000  0.8138600  )
        19        Cl     tau(  19) = (  0.3188000  0.9255000  0.3138600  )
        20        Cl     tau(  20) = (  0.8188000  0.0745000  0.1861400  )
        21        Cl     tau(  21) = (  0.8140000  0.5603000  0.6870500  )
        22        Cl     tau(  22) = (  0.3140000  0.4397000  0.8129500  )
        23        Cl     tau(  23) = (  0.1860000  0.4397000  0.3129500  )
        24        Cl     tau(  24) = (  0.6860000  0.5603000  0.1870500  )

     number of k points=    10
                       cart. coord. in units 2pi/alat
        k(    1) = (  -0.0000000   0.0000000   0.0000000), wk =   0.0740741
        k(    2) = (  -0.0096173   0.0000000  -0.1667949), wk =   0.1481481
        k(    3) = (  -0.3100039   0.0000000   0.0000000), wk =   0.1481481
        k(    4) = (  -0.3196212   0.0000000  -0.1667949), wk =   0.1481481
        k(    5) = (  -0.3003865   0.0000000   0.1667949), wk =   0.1481481
        k(    6) = (  -0.0000000  -0.3333333   0.0000000), wk =   0.1481481
        k(    7) = (  -0.0096173  -0.3333333  -0.1667949), wk =   0.2962963
        k(    8) = (  -0.3100039  -0.3333333   0.0000000), wk =   0.2962963
        k(    9) = (  -0.3196212  -0.3333333  -0.1667949), wk =   0.2962963
        k(   10) = (  -0.3003865  -0.3333333   0.1667949), wk =   0.2962963

                       cryst. coord.
        k(    1) = (   0.0000000   0.0000000   0.0000000), wk =   0.0740741
        k(    2) = (   0.0000000  -0.0000000   0.3333333), wk =   0.1481481
        k(    3) = (   0.0000000   0.3333333   0.0000000), wk =   0.1481481
        k(    4) = (   0.0000000   0.3333333   0.3333333), wk =   0.1481481
        k(    5) = (   0.0000000   0.3333333  -0.3333333), wk =   0.1481481
        k(    6) = (   0.3333333   0.0000000  -0.0000000), wk =   0.1481481
        k(    7) = (   0.3333333  -0.0000000   0.3333333), wk =   0.2962963
        k(    8) = (   0.3333333   0.3333333  -0.0000000), wk =   0.2962963
        k(    9) = (   0.3333333   0.3333333   0.3333333), wk =   0.2962963
        k(   10) = (   0.3333333   0.3333333  -0.3333333), wk =   0.2962963

     Dense  grid:   989717 G-vectors     FFT dimensions: (  96, 108, 192)

     Smooth grid:   538691 G-vectors     FFT dimensions: (  80,  90, 160)

     Dynamical RAM for                 wfc:      16.44 MB

     Dynamical RAM for     wfc (w. buffer):     180.84 MB

     Dynamical RAM for           str. fact:      11.33 MB

     Dynamical RAM for           local pot:       0.00 MB

     Dynamical RAM for          nlocal pot:      21.58 MB

     Dynamical RAM for                qrad:       0.51 MB

     Dynamical RAM for          rho,v,vnew:      22.72 MB

     Dynamical RAM for               rhoin:       7.57 MB

     Dynamical RAM for            rho*nmix:      60.41 MB

     Dynamical RAM for           G-vectors:      15.19 MB

     Dynamical RAM for          h,s,v(r/c):       0.75 MB

     Dynamical RAM for          <psi|beta>:       0.08 MB

     Dynamical RAM for                 psi:      32.88 MB

     Dynamical RAM for                hpsi:      32.88 MB

     Dynamical RAM for      wfcinit/wfcrot:     109.95 MB

     Estimated static dynamical RAM per process >     293.82 MB

     Estimated max dynamical RAM per process >     464.17 MB

     Estimated total dynamical RAM >       1.81 GB

     Initial potential from superposition of free atoms

     starting charge     117.3963, renormalised to     128.0000
     Starting wfcs are  212 randomized atomic wfcs

     total cpu time spent up to now is      207.6 secs

     Self-consistent Calculation

     iteration #  1     ecut=   100.00 Ry     beta= 0.40
     Davidson diagonalization with overlap

---- Real-time Memory Report at c_bands before calling an iterative solver
           570 MiB given to the printing process from OS
             0 MiB allocation reported by mallinfo(arena+hblkhd)
         48770 MiB available memory on the node where the printing process lives
------------------
     ethr =  1.00E-02,  avg # of iterations =  2.0

     Threshold (ethr) on eigenvalues was too large:
     Diagonalizing with lowered threshold

     Davidson diagonalization with overlap

---- Real-time Memory Report at c_bands before calling an iterative solver
           570 MiB given to the printing process from OS
             0 MiB allocation reported by mallinfo(arena+hblkhd)
         48736 MiB available memory on the node where the printing process lives
------------------
     ethr =  2.24E-04,  avg # of iterations =  3.0

     total cpu time spent up to now is      593.3 secs

     total energy              =    -501.67286476 Ry
     estimated scf accuracy    <       0.33876634 Ry

     iteration #  2     ecut=   100.00 Ry     beta= 0.40
     Davidson diagonalization with overlap

---- Real-time Memory Report at c_bands before calling an iterative solver
           570 MiB given to the printing process from OS
             0 MiB allocation reported by mallinfo(arena+hblkhd)
         49438 MiB available memory on the node where the printing process lives
------------------
     ethr =  2.65E-04,  avg # of iterations =  1.0

     total cpu time spent up to now is      749.1 secs

     total energy              =    -501.68938761 Ry
     estimated scf accuracy    <       0.08742795 Ry

     iteration #  3     ecut=   100.00 Ry     beta= 0.40
     Davidson diagonalization with overlap

---- Real-time Memory Report at c_bands before calling an iterative solver
           596 MiB given to the printing process from OS
             0 MiB allocation reported by mallinfo(arena+hblkhd)
         48656 MiB available memory on the node where the printing process lives
------------------
     ethr =  6.83E-05,  avg # of iterations =  2.0

     total cpu time spent up to now is      951.6 secs

     total energy              =    -501.69900851 Ry
     estimated scf accuracy    <       0.01163720 Ry

     iteration #  4     ecut=   100.00 Ry     beta= 0.40
     Davidson diagonalization with overlap

---- Real-time Memory Report at c_bands before calling an iterative solver
           601 MiB given to the printing process from OS
             0 MiB allocation reported by mallinfo(arena+hblkhd)
         48042 MiB available memory on the node where the printing process lives
------------------
     ethr =  9.09E-06,  avg # of iterations =  2.0

     total cpu time spent up to now is     1166.4 secs

     total energy              =    -501.70168755 Ry
     estimated scf accuracy    <       0.00517305 Ry

     iteration #  5     ecut=   100.00 Ry     beta= 0.40
     Davidson diagonalization with overlap

---- Real-time Memory Report at c_bands before calling an iterative solver
           605 MiB given to the printing process from OS
             0 MiB allocation reported by mallinfo(arena+hblkhd)
         48814 MiB available memory on the node where the printing process lives
------------------
     ethr =  4.04E-06,  avg # of iterations =  2.0

     total cpu time spent up to now is     1360.2 secs

     total energy              =    -501.70209396 Ry
     estimated scf accuracy    <       0.00040017 Ry

     iteration #  6     ecut=   100.00 Ry     beta= 0.40
     Davidson diagonalization with overlap

---- Real-time Memory Report at c_bands before calling an iterative solver
           609 MiB given to the printing process from OS
             0 MiB allocation reported by mallinfo(arena+hblkhd)
         48784 MiB available memory on the node where the printing process lives
------------------
     ethr =  3.13E-07,  avg # of iterations =  3.0

     total cpu time spent up to now is     1609.5 secs

     total energy              =    -501.70226168 Ry
     estimated scf accuracy    <       0.00042309 Ry

     iteration #  7     ecut=   100.00 Ry     beta= 0.40
     Davidson diagonalization with overlap

---- Real-time Memory Report at c_bands before calling an iterative solver
           613 MiB given to the printing process from OS
             0 MiB allocation reported by mallinfo(arena+hblkhd)
         48767 MiB available memory on the node where the printing process lives
------------------
     ethr =  3.13E-07,  avg # of iterations =  2.0

     total cpu time spent up to now is     1811.6 secs

     total energy              =    -501.70231135 Ry
     estimated scf accuracy    <       0.00001835 Ry

     iteration #  8     ecut=   100.00 Ry     beta= 0.40
     Davidson diagonalization with overlap

---- Real-time Memory Report at c_bands before calling an iterative solver
           617 MiB given to the printing process from OS
             0 MiB allocation reported by mallinfo(arena+hblkhd)
         48751 MiB available memory on the node where the printing process lives
------------------
     ethr =  1.43E-08,  avg # of iterations =  3.0

     total cpu time spent up to now is     2031.0 secs

     End of self-consistent calculation

          k =-0.0000 0.0000 0.0000 ( 67371 PWs)   bands (ev):

   -13.6808 -13.5200 -13.5035 -13.3667 -12.9884 -12.9862 -12.9377 -12.8986
   -12.8977 -12.8923 -12.8653 -12.8627 -12.7785 -12.7673 -12.7202 -12.7089
    -4.1247  -4.0787  -4.0641  -4.0198  -2.7963  -2.7400  -2.4982  -2.4416
    -2.3757  -2.3676  -2.3194  -2.1869  -2.1397  -2.1309  -2.0972  -1.9274
    -1.6476  -1.5332  -1.5252  -1.4575  -1.3458  -1.3173  -1.2510  -1.1956
    -1.1657  -1.0879  -0.9509  -0.9252  -0.8735  -0.7736  -0.6821  -0.6692
    -0.5299  -0.5279  -0.5227  -0.3700  -0.3543  -0.3345  -0.3303  -0.2545
    -0.1391  -0.1215  -0.0545  -0.0261  -0.0173   0.0416   0.0452   0.0578

     occupation numbers 
     1.0000   1.0000   1.0000   1.0000   1.0000   1.0000   1.0000   1.0000
     1.0000   1.0000   1.0000   1.0000   1.0000   1.0000   1.0000   1.0000
     1.0000   1.0000   1.0000   1.0000   1.0000   1.0000   1.0000   1.0000
     1.0000   1.0000   1.0000   1.0000   1.0000   1.0000   1.0000   1.0000
     1.0000   1.0000   1.0000   1.0000   1.0000   1.0000   1.0000   1.0000
     1.0000   1.0000   1.0000   1.0000   1.0000   1.0000   1.0000   1.0000
     1.0000   1.0000   1.0000   1.0000   1.0000   1.0000   1.0000   1.0000
     1.0000   1.0000   1.0000   1.0000   1.0000   1.0000   1.0000   1.0000

          k =-0.0096 0.0000-0.1668 ( 67383 PWs)   bands (ev):

   -13.6583 -13.5965 -13.4315 -13.3818 -12.9902 -12.9900 -12.9299 -12.9134
   -12.8932 -12.8874 -12.8650 -12.8637 -12.7760 -12.7706 -12.7163 -12.7109
    -4.1192  -4.1013  -4.0404  -4.0232  -2.7819  -2.7542  -2.4783  -2.4168
    -2.3873  -2.3670  -2.3446  -2.2565  -2.1574  -2.0728  -2.0368  -1.9677
    -1.6911  -1.6454  -1.4741  -1.4569  -1.3499  -1.3434  -1.2197  -1.1783
    -1.1264  -1.0123  -0.9176  -0.8577  -0.8509  -0.8303  -0.7315  -0.6502
    -0.5932  -0.5229  -0.4302  -0.4087  -0.3749  -0.3223  -0.2851  -0.2613
    -0.1541  -0.1426  -0.0624  -0.0455  -0.0171   0.0099   0.0466   0.0468

     occupation numbers 
     1.0000   1.0000   1.0000   1.0000   1.0000   1.0000   1.0000   1.0000
     1.0000   1.0000   1.0000   1.0000   1.0000   1.0000   1.0000   1.0000
     1.0000   1.0000   1.0000   1.0000   1.0000   1.0000   1.0000   1.0000
     1.0000   1.0000   1.0000   1.0000   1.0000   1.0000   1.0000   1.0000
     1.0000   1.0000   1.0000   1.0000   1.0000   1.0000   1.0000   1.0000
     1.0000   1.0000   1.0000   1.0000   1.0000   1.0000   1.0000   1.0000
     1.0000   1.0000   1.0000   1.0000   1.0000   1.0000   1.0000   1.0000
     1.0000   1.0000   1.0000   1.0000   1.0000   1.0000   1.0000   1.0000

          k =-0.3100 0.0000 0.0000 ( 67393 PWs)   bands (ev):

   -13.6016 -13.4888 -13.4731 -13.4338 -13.0403 -13.0074 -12.9573 -12.9542
   -12.9427 -12.8928 -12.8246 -12.8091 -12.7611 -12.7596 -12.7285 -12.7264
    -4.0406  -4.0059  -3.9651  -3.9646  -2.7168  -2.6668  -2.5443  -2.5072
    -2.3616  -2.2911  -2.2390  -2.1569  -2.1503  -2.0815  -2.0594  -1.9882
    -1.7482  -1.6718  -1.5314  -1.4939  -1.3511  -1.2975  -1.1990  -1.1458
    -1.1180  -1.0377  -1.0079  -0.9388  -0.8583  -0.8376  -0.6803  -0.6514
    -0.6253  -0.5352  -0.4747  -0.4724  -0.4145  -0.3774  -0.3197  -0.3053
    -0.3045  -0.2369  -0.1615  -0.1151  -0.0505  -0.0258   0.0345   0.0594

     occupation numbers 
     1.0000   1.0000   1.0000   1.0000   1.0000   1.0000   1.0000   1.0000
     1.0000   1.0000   1.0000   1.0000   1.0000   1.0000   1.0000   1.0000
     1.0000   1.0000   1.0000   1.0000   1.0000   1.0000   1.0000   1.0000
     1.0000   1.0000   1.0000   1.0000   1.0000   1.0000   1.0000   1.0000
     1.0000   1.0000   1.0000   1.0000   1.0000   1.0000   1.0000   1.0000
     1.0000   1.0000   1.0000   1.0000   1.0000   1.0000   1.0000   1.0000
     1.0000   1.0000   1.0000   1.0000   1.0000   1.0000   1.0000   1.0000
     1.0000   1.0000   1.0000   1.0000   1.0000   1.0000   1.0000   1.0000

          k =-0.3196 0.0000-0.1668 ( 67319 PWs)   bands (ev):

   -13.5805 -13.5422 -13.4401 -13.4353 -13.0280 -13.0088 -12.9651 -12.9491
   -12.9470 -12.8960 -12.8272 -12.8120 -12.7612 -12.7537 -12.7346 -12.7205
    -4.0452  -3.9922  -3.9854  -3.9524  -2.7091  -2.6801  -2.5219  -2.4844
    -2.3815  -2.2655  -2.2612  -2.1686  -2.1266  -2.0839  -2.0738  -2.0626
    -1.7296  -1.7097  -1.5183  -1.4256  -1.3560  -1.2998  -1.2266  -1.1760
    -1.0462  -1.0012  -0.9801  -0.8830  -0.8229  -0.8134  -0.7701  -0.7350
    -0.7034  -0.5574  -0.4452  -0.4246  -0.4107  -0.3822  -0.3691  -0.3267
    -0.2720  -0.1994  -0.1383  -0.1097  -0.1037   0.0004   0.0233   0.0743

     occupation numbers 
     1.0000   1.0000   1.0000   1.0000   1.0000   1.0000   1.0000   1.0000
     1.0000   1.0000   1.0000   1.0000   1.0000   1.0000   1.0000   1.0000
     1.0000   1.0000   1.0000   1.0000   1.0000   1.0000   1.0000   1.0000
     1.0000   1.0000   1.0000   1.0000   1.0000   1.0000   1.0000   1.0000
     1.0000   1.0000   1.0000   1.0000   1.0000   1.0000   1.0000   1.0000
     1.0000   1.0000   1.0000   1.0000   1.0000   1.0000   1.0000   1.0000
     1.0000   1.0000   1.0000   1.0000   1.0000   1.0000   1.0000   1.0000
     1.0000   1.0000   1.0000   1.0000   1.0000   1.0000   1.0000   1.0000

          k =-0.3004 0.0000 0.1668 ( 67378 PWs)   bands (ev):

   -13.5869 -13.5316 -13.4470 -13.4320 -13.0479 -12.9955 -12.9565 -12.9525
   -12.9252 -12.9157 -12.8219 -12.8210 -12.7601 -12.7513 -12.7363 -12.7201
    -4.0303  -4.0193  -3.9756  -3.9505  -2.7009  -2.6809  -2.5460  -2.4686
    -2.3597  -2.3029  -2.2168  -2.1885  -2.1680  -2.0904  -2.0664  -2.0147
    -1.7468  -1.6563  -1.5259  -1.5130  -1.3966  -1.3156  -1.1652  -1.1184
    -1.1172  -1.0296  -0.9599  -0.8560  -0.8393  -0.7882  -0.7278  -0.6665
    -0.6501  -0.5891  -0.5317  -0.4811  -0.3887  -0.3808  -0.3465  -0.3151
    -0.2104  -0.2044  -0.1924  -0.1278  -0.1016  -0.0261   0.0425   0.0694

     occupation numbers 
     1.0000   1.0000   1.0000   1.0000   1.0000   1.0000   1.0000   1.0000
     1.0000   1.0000   1.0000   1.0000   1.0000   1.0000   1.0000   1.0000
     1.0000   1.0000   1.0000   1.0000   1.0000   1.0000   1.0000   1.0000
     1.0000   1.0000   1.0000   1.0000   1.0000   1.0000   1.0000   1.0000
     1.0000   1.0000   1.0000   1.0000   1.0000   1.0000   1.0000   1.0000
     1.0000   1.0000   1.0000   1.0000   1.0000   1.0000   1.0000   1.0000
     1.0000   1.0000   1.0000   1.0000   1.0000   1.0000   1.0000   1.0000
     1.0000   1.0000   1.0000   1.0000   1.0000   1.0000   1.0000   1.0000

          k =-0.0000-0.3333 0.0000 ( 67281 PWs)   bands (ev):

   -13.6080 -13.5106 -13.4674 -13.4089 -13.0104 -13.0005 -12.9341 -12.9225
   -12.8967 -12.8805 -12.8682 -12.8547 -12.8176 -12.7986 -12.7139 -12.7078
    -4.1191  -4.0750  -4.0529  -4.0414  -2.6419  -2.6084  -2.5734  -2.4965
    -2.4336  -2.3956  -2.2891  -2.2450  -2.2104  -2.0231  -1.9358  -1.8923
    -1.6982  -1.6804  -1.4666  -1.4238  -1.3976  -1.2830  -1.2153  -1.2148
    -1.0640  -1.0290  -1.0049  -0.8798  -0.8525  -0.7261  -0.6754  -0.6391
    -0.5926  -0.5917  -0.4318  -0.3997  -0.3765  -0.3682  -0.3181  -0.1874
    -0.1770  -0.1558  -0.1524  -0.1258  -0.0084   0.0062   0.0118   0.0446

     occupation numbers 
     1.0000   1.0000   1.0000   1.0000   1.0000   1.0000   1.0000   1.0000
     1.0000   1.0000   1.0000   1.0000   1.0000   1.0000   1.0000   1.0000
     1.0000   1.0000   1.0000   1.0000   1.0000   1.0000   1.0000   1.0000
     1.0000   1.0000   1.0000   1.0000   1.0000   1.0000   1.0000   1.0000
     1.0000   1.0000   1.0000   1.0000   1.0000   1.0000   1.0000   1.0000
     1.0000   1.0000   1.0000   1.0000   1.0000   1.0000   1.0000   1.0000
     1.0000   1.0000   1.0000   1.0000   1.0000   1.0000   1.0000   1.0000
     1.0000   1.0000   1.0000   1.0000   1.0000   1.0000   1.0000   1.0000

          k =-0.0096-0.3333-0.1668 ( 67312 PWs)   bands (ev):

   -13.5912 -13.5481 -13.4402 -13.4163 -13.0069 -12.9994 -12.9318 -12.9258
   -12.8905 -12.8780 -12.8748 -12.8640 -12.8105 -12.8019 -12.7122 -12.7091
    -4.1102  -4.0898  -4.0443  -4.0398  -2.6260  -2.6116  -2.5591  -2.5137
    -2.4514  -2.4371  -2.2437  -2.2174  -2.2051  -2.0747  -1.9524  -1.9350
    -1.7352  -1.6894  -1.3869  -1.3725  -1.3346  -1.2637  -1.2338  -1.1276
    -1.1091  -1.0716  -1.0316  -0.8863  -0.8448  -0.7616  -0.6866  -0.6631
    -0.5783  -0.5466  -0.4687  -0.4225  -0.3439  -0.3065  -0.2932  -0.2290
    -0.2010  -0.1735  -0.1449  -0.1293  -0.0206  -0.0049   0.0195   0.0398

     occupation numbers 
     1.0000   1.0000   1.0000   1.0000   1.0000   1.0000   1.0000   1.0000
     1.0000   1.0000   1.0000   1.0000   1.0000   1.0000   1.0000   1.0000
     1.0000   1.0000   1.0000   1.0000   1.0000   1.0000   1.0000   1.0000
     1.0000   1.0000   1.0000   1.0000   1.0000   1.0000   1.0000   1.0000
     1.0000   1.0000   1.0000   1.0000   1.0000   1.0000   1.0000   1.0000
     1.0000   1.0000   1.0000   1.0000   1.0000   1.0000   1.0000   1.0000
     1.0000   1.0000   1.0000   1.0000   1.0000   1.0000   1.0000   1.0000
     1.0000   1.0000   1.0000   1.0000   1.0000   1.0000   1.0000   1.0000

          k =-0.3100-0.3333 0.0000 ( 67351 PWs)   bands (ev):

   -13.5442 -13.4787 -13.4448 -13.4271 -13.0332 -13.0248 -12.9935 -12.9744
   -12.9243 -12.8976 -12.8382 -12.8188 -12.7903 -12.7744 -12.7375 -12.7271
    -4.0475  -4.0255  -3.9353  -3.9121  -2.6234  -2.6057  -2.5908  -2.4560
    -2.3952  -2.3212  -2.2738  -2.2591  -2.0870  -2.0401  -1.9784  -1.9194
    -1.7525  -1.7361  -1.5214  -1.4635  -1.3370  -1.3157  -1.2438  -1.1909
    -1.0788  -1.0256  -0.9954  -0.9419  -0.8343  -0.8040  -0.7218  -0.7070
    -0.6544  -0.5835  -0.5155  -0.4543  -0.3917  -0.3644  -0.3020  -0.2960
    -0.2611  -0.1922  -0.1447  -0.1261  -0.0803  -0.0527  -0.0311   0.0279

     occupation numbers 
     1.0000   1.0000   1.0000   1.0000   1.0000   1.0000   1.0000   1.0000
     1.0000   1.0000   1.0000   1.0000   1.0000   1.0000   1.0000   1.0000
     1.0000   1.0000   1.0000   1.0000   1.0000   1.0000   1.0000   1.0000
     1.0000   1.0000   1.0000   1.0000   1.0000   1.0000   1.0000   1.0000
     1.0000   1.0000   1.0000   1.0000   1.0000   1.0000   1.0000   1.0000
     1.0000   1.0000   1.0000   1.0000   1.0000   1.0000   1.0000   1.0000
     1.0000   1.0000   1.0000   1.0000   1.0000   1.0000   1.0000   1.0000
     1.0000   1.0000   1.0000   1.0000   1.0000   1.0000   1.0000   1.0000

          k =-0.3196-0.3333-0.1668 ( 67350 PWs)   bands (ev):

   -13.5286 -13.5040 -13.4334 -13.4309 -13.0256 -13.0181 -13.0004 -12.9814
   -12.9178 -12.9026 -12.8350 -12.8187 -12.7939 -12.7742 -12.7380 -12.7265
    -4.0476  -4.0226  -3.9357  -3.9134  -2.6295  -2.6056  -2.5770  -2.4731
    -2.3901  -2.3228  -2.3027  -2.1788  -2.0999  -2.0651  -1.9820  -1.9308
    -1.7890  -1.7419  -1.4970  -1.3964  -1.3460  -1.3378  -1.2480  -1.2009
    -1.0867  -1.0192  -1.0018  -0.9128  -0.8385  -0.7997  -0.7584  -0.7381
    -0.6377  -0.5565  -0.4984  -0.4463  -0.4106  -0.3769  -0.3161  -0.2684
    -0.2226  -0.1706  -0.1626  -0.1485  -0.0914  -0.0694  -0.0138   0.0173

     occupation numbers 
     1.0000   1.0000   1.0000   1.0000   1.0000   1.0000   1.0000   1.0000
     1.0000   1.0000   1.0000   1.0000   1.0000   1.0000   1.0000   1.0000
     1.0000   1.0000   1.0000   1.0000   1.0000   1.0000   1.0000   1.0000
     1.0000   1.0000   1.0000   1.0000   1.0000   1.0000   1.0000   1.0000
     1.0000   1.0000   1.0000   1.0000   1.0000   1.0000   1.0000   1.0000
     1.0000   1.0000   1.0000   1.0000   1.0000   1.0000   1.0000   1.0000
     1.0000   1.0000   1.0000   1.0000   1.0000   1.0000   1.0000   1.0000
     1.0000   1.0000   1.0000   1.0000   1.0000   1.0000   1.0000   1.0000

          k =-0.3004-0.3333 0.1668 ( 67348 PWs)   bands (ev):

   -13.5342 -13.4945 -13.4436 -13.4242 -13.0297 -13.0150 -12.9986 -12.9829
   -12.9184 -12.9051 -12.8295 -12.8187 -12.7895 -12.7791 -12.7394 -12.7266
    -4.0500  -4.0183  -3.9427  -3.9080  -2.6222  -2.6075  -2.5881  -2.4648
    -2.3723  -2.3603  -2.2622  -2.2064  -2.0829  -2.0688  -2.0167  -1.9393
    -1.7606  -1.7207  -1.5073  -1.4492  -1.3427  -1.2975  -1.2547  -1.1793
    -1.0904  -1.0372  -1.0003  -0.8889  -0.8544  -0.7785  -0.7658  -0.7161
    -0.6444  -0.5557  -0.5151  -0.4365  -0.4314  -0.3636  -0.2998  -0.2858
    -0.2308  -0.2045  -0.1642  -0.1295  -0.0822  -0.0642  -0.0303   0.0284

     occupation numbers 
     1.0000   1.0000   1.0000   1.0000   1.0000   1.0000   1.0000   1.0000
     1.0000   1.0000   1.0000   1.0000   1.0000   1.0000   1.0000   1.0000
     1.0000   1.0000   1.0000   1.0000   1.0000   1.0000   1.0000   1.0000
     1.0000   1.0000   1.0000   1.0000   1.0000   1.0000   1.0000   1.0000
     1.0000   1.0000   1.0000   1.0000   1.0000   1.0000   1.0000   1.0000
     1.0000   1.0000   1.0000   1.0000   1.0000   1.0000   1.0000   1.0000
     1.0000   1.0000   1.0000   1.0000   1.0000   1.0000   1.0000   1.0000
     1.0000   1.0000   1.0000   1.0000   1.0000   1.0000   1.0000   1.0000

     highest occupied level (ev):     0.0743

!    total energy              =    -501.70231956 Ry
     estimated scf accuracy    <       0.00000048 Ry

     The total energy is the sum of the following terms:
     one-electron contribution =    -127.27444152 Ry
     hartree contribution      =     109.62716848 Ry
     xc contribution           =    -102.56183130 Ry
     ewald contribution        =    -381.49321522 Ry

     convergence has been achieved in   8 iterations

     Forces acting on atoms (cartesian axes, Ry/au):

     atom    1 type  1   force =    -0.00087264    0.00082794    0.00216209
     atom    2 type  1   force =     0.00087264    0.00082794   -0.00216209
     atom    3 type  1   force =     0.00087264   -0.00082794   -0.00216209
     atom    4 type  1   force =    -0.00087264   -0.00082794    0.00216209
     atom    5 type  2   force =    -0.00063611   -0.00222184    0.00225987
     atom    6 type  2   force =     0.00063611   -0.00222184   -0.00225987
     atom    7 type  2   force =     0.00063611    0.00222184   -0.00225987
     atom    8 type  2   force =    -0.00063611    0.00222184    0.00225987
     atom    9 type  3   force =    -0.00030322    0.00640536    0.01341568
     atom   10 type  3   force =     0.00030322    0.00640536   -0.01341568
     atom   11 type  3   force =     0.00030322   -0.00640536   -0.01341568
     atom   12 type  3   force =    -0.00030322   -0.00640536    0.01341568
     atom   13 type  3   force =     0.00558016   -0.01284230    0.00170718
     atom   14 type  3   force =    -0.00558016   -0.01284230   -0.00170718
     atom   15 type  3   force =    -0.00558016    0.01284230   -0.00170718
     atom   16 type  3   force =     0.00558016    0.01284230    0.00170718
     atom   17 type  3   force =     0.01112577    0.00682434   -0.00945184
     atom   18 type  3   force =    -0.01112577    0.00682434    0.00945184
     atom   19 type  3   force =    -0.01112577   -0.00682434    0.00945184
     atom   20 type  3   force =     0.01112577   -0.00682434   -0.00945184
     atom   21 type  3   force =    -0.01361682    0.00065315   -0.00745042
     atom   22 type  3   force =     0.01361682    0.00065315    0.00745042
     atom   23 type  3   force =     0.01361682   -0.00065315    0.00745042
     atom   24 type  3   force =    -0.01361682   -0.00065315   -0.00745042
     The non-local contrib.  to forces
     atom    1 type  1   force =    -0.01739174   -0.01341866   -0.00099456
     atom    2 type  1   force =     0.01739174   -0.01341866    0.00099456
     atom    3 type  1   force =     0.01739174    0.01341866    0.00099456
     atom    4 type  1   force =    -0.01739174    0.01341866   -0.00099456
     atom    5 type  2   force =     0.00087900    0.01439524   -0.03005990
     atom    6 type  2   force =    -0.00087900    0.01439524    0.03005990
     atom    7 type  2   force =    -0.00087900   -0.01439524    0.03005990
     atom    8 type  2   force =     0.00087900   -0.01439524   -0.03005990
     atom    9 type  3   force =     0.03933056   -0.13499814   -0.13771170
     atom   10 type  3   force =    -0.03933056   -0.13499814    0.13771170
     atom   11 type  3   force =    -0.03933056    0.13499814    0.13771170
     atom   12 type  3   force =     0.03933056    0.13499814   -0.13771170
     atom   13 type  3   force =    -0.01223324    0.18762439   -0.01237369
     atom   14 type  3   force =     0.01223324    0.18762439    0.01237369
     atom   15 type  3   force =     0.01223324   -0.18762439    0.01237369
     atom   16 type  3   force =    -0.01223324   -0.18762439   -0.01237369
     atom   17 type  3   force =    -0.14111642   -0.08330944    0.03624342
     atom   18 type  3   force =     0.14111642   -0.08330944   -0.03624342
     atom   19 type  3   force =     0.14111642    0.08330944   -0.03624342
     atom   20 type  3   force =    -0.14111642    0.08330944    0.03624342
     atom   21 type  3   force =     0.11389644   -0.06274966    0.14459189
     atom   22 type  3   force =    -0.11389644   -0.06274966   -0.14459189
     atom   23 type  3   force =    -0.11389644    0.06274966   -0.14459189
     atom   24 type  3   force =     0.11389644    0.06274966    0.14459189
     The ionic contribution  to forces
     atom    1 type  1   force =    -0.02423539   -0.05007099   -0.11403160
     atom    2 type  1   force =     0.02423539   -0.05007099    0.11403160
     atom    3 type  1   force =     0.02423539    0.05007099    0.11403160
     atom    4 type  1   force =    -0.02423539    0.05007099   -0.11403160
     atom    5 type  2   force =    -0.18827817    0.26150167   -0.19527978
     atom    6 type  2   force =     0.18827817    0.26150167    0.19527978
     atom    7 type  2   force =     0.18827817   -0.26150167    0.19527978
     atom    8 type  2   force =    -0.18827817   -0.26150167   -0.19527978
     atom    9 type  3   force =    -0.15118188    2.01723636    2.20437328
     atom   10 type  3   force =     0.15118188    2.01723636   -2.20437328
     atom   11 type  3   force =     0.15118188   -2.01723636   -2.20437328
     atom   12 type  3   force =    -0.15118188   -2.01723636    2.20437328
     atom   13 type  3   force =     0.32252200   -3.04795898   -0.01908978
     atom   14 type  3   force =    -0.32252200   -3.04795898    0.01908978
     atom   15 type  3   force =    -0.32252200    3.04795898    0.01908978
     atom   16 type  3   force =     0.32252200    3.04795898   -0.01908978
     atom   17 type  3   force =     1.72511832    1.44022468   -1.10806173
     atom   18 type  3   force =    -1.72511832    1.44022468    1.10806173
     atom   19 type  3   force =    -1.72511832   -1.44022468    1.10806173
     atom   20 type  3   force =     1.72511832   -1.44022468   -1.10806173
     atom   21 type  3   force =    -1.95880577    0.42461295   -1.37177756
     atom   22 type  3   force =     1.95880577    0.42461295    1.37177756
     atom   23 type  3   force =     1.95880577   -0.42461295    1.37177756
     atom   24 type  3   force =    -1.95880577   -0.42461295   -1.37177756
     The local contribution  to forces
     atom    1 type  1   force =     0.03812301    0.06229448    0.11698747
     atom    2 type  1   force =    -0.03812301    0.06229448   -0.11698747
     atom    3 type  1   force =    -0.03812301   -0.06229448   -0.11698747
     atom    4 type  1   force =     0.03812301   -0.06229448    0.11698747
     atom    5 type  2   force =     0.18676166   -0.27812623    0.22760699
     atom    6 type  2   force =    -0.18676166   -0.27812623   -0.22760699
     atom    7 type  2   force =    -0.18676166    0.27812623   -0.22760699
     atom    8 type  2   force =     0.18676166    0.27812623    0.22760699
     atom    9 type  3   force =     0.11148452   -1.87604299   -2.05361410
     atom   10 type  3   force =    -0.11148452   -1.87604299    2.05361410
     atom   11 type  3   force =    -0.11148452    1.87604299    2.05361410
     atom   12 type  3   force =     0.11148452    1.87604299   -2.05361410
     atom   13 type  3   force =    -0.30485249    2.84785926    0.03320700
     atom   14 type  3   force =     0.30485249    2.84785926   -0.03320700
     atom   15 type  3   force =     0.30485249   -2.84785926   -0.03320700
     atom   16 type  3   force =    -0.30485249   -2.84785926    0.03320700
     atom   17 type  3   force =    -1.57318399   -1.35026063    1.06260803
     atom   18 type  3   force =     1.57318399   -1.35026063   -1.06260803
     atom   19 type  3   force =     1.57318399    1.35026063   -1.06260803
     atom   20 type  3   force =    -1.57318399    1.35026063    1.06260803
     atom   21 type  3   force =     1.83164631   -0.36124961    1.21995747
     atom   22 type  3   force =    -1.83164631   -0.36124961   -1.21995747
     atom   23 type  3   force =    -1.83164631    0.36124961   -1.21995747
     atom   24 type  3   force =     1.83164631    0.36124961    1.21995747
     The core correction contribution to forces
     atom    1 type  1   force =     0.00263518    0.00202223    0.00021192
     atom    2 type  1   force =    -0.00263518    0.00202223   -0.00021192
     atom    3 type  1   force =    -0.00263518   -0.00202223   -0.00021192
     atom    4 type  1   force =     0.00263518   -0.00202223    0.00021192
     atom    5 type  2   force =     0.00000000    0.00000000    0.00000000
     atom    6 type  2   force =     0.00000000    0.00000000    0.00000000
     atom    7 type  2   force =     0.00000000    0.00000000    0.00000000
     atom    8 type  2   force =     0.00000000    0.00000000    0.00000000
     atom    9 type  3   force =     0.00000000    0.00000000    0.00000000
     atom   10 type  3   force =     0.00000000    0.00000000    0.00000000
     atom   11 type  3   force =     0.00000000    0.00000000    0.00000000
     atom   12 type  3   force =     0.00000000    0.00000000    0.00000000
     atom   13 type  3   force =     0.00000000    0.00000000    0.00000000
     atom   14 type  3   force =     0.00000000    0.00000000    0.00000000
     atom   15 type  3   force =     0.00000000    0.00000000    0.00000000
     atom   16 type  3   force =     0.00000000    0.00000000    0.00000000
     atom   17 type  3   force =     0.00000000    0.00000000    0.00000000
     atom   18 type  3   force =     0.00000000    0.00000000    0.00000000
     atom   19 type  3   force =     0.00000000    0.00000000    0.00000000
     atom   20 type  3   force =     0.00000000    0.00000000    0.00000000
     atom   21 type  3   force =     0.00000000    0.00000000    0.00000000
     atom   22 type  3   force =     0.00000000    0.00000000    0.00000000
     atom   23 type  3   force =     0.00000000    0.00000000    0.00000000
     atom   24 type  3   force =     0.00000000    0.00000000    0.00000000
     The Hubbard contrib.    to forces
     atom    1 type  1   force =     0.00000000    0.00000000    0.00000000
     atom    2 type  1   force =     0.00000000    0.00000000    0.00000000
     atom    3 type  1   force =     0.00000000    0.00000000    0.00000000
     atom    4 type  1   force =     0.00000000    0.00000000    0.00000000
     atom    5 type  2   force =     0.00000000    0.00000000    0.00000000
     atom    6 type  2   force =     0.00000000    0.00000000    0.00000000
     atom    7 type  2   force =     0.00000000    0.00000000    0.00000000
     atom    8 type  2   force =     0.00000000    0.00000000    0.00000000
     atom    9 type  3   force =     0.00000000    0.00000000    0.00000000
     atom   10 type  3   force =     0.00000000    0.00000000    0.00000000
     atom   11 type  3   force =     0.00000000    0.00000000    0.00000000
     atom   12 type  3   force =     0.00000000    0.00000000    0.00000000
     atom   13 type  3   force =     0.00000000    0.00000000    0.00000000
     atom   14 type  3   force =     0.00000000    0.00000000    0.00000000
     atom   15 type  3   force =     0.00000000    0.00000000    0.00000000
     atom   16 type  3   force =     0.00000000    0.00000000    0.00000000
     atom   17 type  3   force =     0.00000000    0.00000000    0.00000000
     atom   18 type  3   force =     0.00000000    0.00000000    0.00000000
     atom   19 type  3   force =     0.00000000    0.00000000    0.00000000
     atom   20 type  3   force =     0.00000000    0.00000000    0.00000000
     atom   21 type  3   force =     0.00000000    0.00000000    0.00000000
     atom   22 type  3   force =     0.00000000    0.00000000    0.00000000
     atom   23 type  3   force =     0.00000000    0.00000000    0.00000000
     atom   24 type  3   force =     0.00000000    0.00000000    0.00000000
     The SCF correction term to forces
     atom    1 type  1   force =    -0.00000371    0.00000088   -0.00001113
     atom    2 type  1   force =     0.00000371    0.00000088    0.00001113
     atom    3 type  1   force =     0.00000371   -0.00000088    0.00001113
     atom    4 type  1   force =    -0.00000371   -0.00000088   -0.00001113
     atom    5 type  2   force =     0.00000139    0.00000748   -0.00000743
     atom    6 type  2   force =    -0.00000139    0.00000748    0.00000743
     atom    7 type  2   force =    -0.00000139   -0.00000748    0.00000743
     atom    8 type  2   force =     0.00000139   -0.00000748   -0.00000743
     atom    9 type  3   force =     0.00006358    0.00021014    0.00036821
     atom   10 type  3   force =    -0.00006358    0.00021014   -0.00036821
     atom   11 type  3   force =    -0.00006358   -0.00021014   -0.00036821
     atom   12 type  3   force =     0.00006358   -0.00021014    0.00036821
     atom   13 type  3   force =     0.00014388   -0.00036697   -0.00003635
     atom   14 type  3   force =    -0.00014388   -0.00036697    0.00003635
     atom   15 type  3   force =    -0.00014388    0.00036697    0.00003635
     atom   16 type  3   force =     0.00014388    0.00036697   -0.00003635
     atom   17 type  3   force =     0.00030785    0.00016974   -0.00024155
     atom   18 type  3   force =    -0.00030785    0.00016974    0.00024155
     atom   19 type  3   force =    -0.00030785   -0.00016974    0.00024155
     atom   20 type  3   force =     0.00030785   -0.00016974   -0.00024155
     atom   21 type  3   force =    -0.00035381    0.00003947   -0.00022221
     atom   22 type  3   force =     0.00035381    0.00003947    0.00022221
     atom   23 type  3   force =     0.00035381   -0.00003947    0.00022221
     atom   24 type  3   force =    -0.00035381   -0.00003947   -0.00022221

     Total force =     0.061244     Total SCF correction =     0.001672


     Computing stress (Cartesian axis) and pressure

          total   stress  (Ry/bohr**3)                   (kbar)     P=       18.45
   0.00012742   0.00000000   0.00000252           18.74        0.00        0.37
   0.00000000   0.00012556   0.00000000            0.00       18.47        0.00
   0.00000252   0.00000000   0.00012325            0.37        0.00       18.13

     kinetic stress (kbar)   4575.16      0.00     -9.86
                                0.00   4622.18      0.00
                               -9.86      0.00   4579.94

     local   stress (kbar)  -6141.62     -0.00    -92.11
                               -0.00  -5379.21     -0.00
                              -92.11     -0.00  -5841.84

     nonloc. stress (kbar)   5733.14      0.00      1.27
                                0.00   5731.38      0.00
                                1.27      0.00   5733.00

     hartree stress (kbar)   1463.98     -0.00     24.12
                               -0.00   1226.62      0.00
                               24.12      0.00   1353.30

     exc-cor stress (kbar)  -1155.55      0.00      0.25
                                0.00  -1156.69      0.00
                                0.25      0.00  -1156.09

     corecor stress (kbar)    -20.04      0.00     -0.02
                                0.00    -20.03     -0.00
                               -0.02     -0.00    -19.85

     ewald   stress (kbar)  -4436.33      0.00     76.71
                                0.00  -5005.77     -0.00
                               76.71     -0.00  -4630.32

     hubbard stress (kbar)      0.00      0.00      0.00
                                0.00      0.00      0.00
                                0.00      0.00      0.00

     DFT-D   stress (kbar)      0.00      0.00      0.00
                                0.00      0.00      0.00
                                0.00      0.00      0.00

     XDM     stress (kbar)      0.00      0.00      0.00
                                0.00      0.00      0.00
                                0.00      0.00      0.00

     dft-nl  stress (kbar)      0.00      0.00      0.00
                                0.00      0.00      0.00
                                0.00      0.00      0.00

     TS-vdW  stress (kbar)      0.00      0.00      0.00
                                0.00      0.00      0.00
                                0.00      0.00      0.00

     MDB     stress (kbar)      0.00      0.00      0.00
                                0.00      0.00      0.00
                                0.00      0.00      0.00

     3D-RISM stress (kbar)      0.00      0.00      0.00
                                0.00      0.00      0.00
                                0.00      0.00      0.00


     Writing all to output data dir ./out/LAC.save/ :
     XML data file, charge density, pseudopotentials, collected wavefunctions

     init_run     :    204.40s CPU    207.19s WALL (       1 calls)
     electrons    :   1807.12s CPU   1852.90s WALL (       1 calls)
     forces       :     23.40s CPU     23.60s WALL (       1 calls)
     stress       :     63.50s CPU     63.80s WALL (       1 calls)

     Called by init_run:
     wfcinit      :    201.34s CPU    203.82s WALL (       1 calls)
     wfcinit:atom :      0.37s CPU      0.69s WALL (      10 calls)
     wfcinit:wfcr :    198.88s CPU    200.82s WALL (      10 calls)
     potinit      :      1.40s CPU      1.61s WALL (       1 calls)
     hinit0       :      1.22s CPU      1.28s WALL (       1 calls)

     Called by electrons:
     c_bands      :   1501.41s CPU   1515.19s WALL (       9 calls)
     sum_band     :    299.18s CPU    301.30s WALL (       9 calls)
     v_of_rho     :      5.44s CPU      5.83s WALL (       9 calls)
     v_h          :      0.68s CPU      0.71s WALL (       9 calls)
     v_xc         :      5.82s CPU      6.32s WALL (      11 calls)
     mix_rho      :      0.99s CPU      1.10s WALL (       9 calls)

     Called by c_bands:
     init_us_2    :      5.13s CPU      5.17s WALL (     210 calls)
     cegterg      :   1496.22s CPU   1509.69s WALL (      90 calls)

     Called by sum_band:
     sum_band:wei :      0.00s CPU      0.00s WALL (       9 calls)
     sum_band:loo :    298.12s CPU    300.14s WALL (       9 calls)
     sum_band:buf :      0.72s CPU      0.97s WALL (      90 calls)
     sum_band:ini :      2.21s CPU      2.22s WALL (      90 calls)

     Called by *egterg:
     cdiaghg      :      1.62s CPU      1.63s WALL (     280 calls)
     cegterg:over :     11.96s CPU     11.99s WALL (     200 calls)
     cegterg:upda :      9.22s CPU     10.10s WALL (     200 calls)
     cegterg:last :     10.43s CPU     10.51s WALL (     186 calls)
     h_psi        :   1645.78s CPU   1658.42s WALL (     300 calls)
     g_psi        :      3.73s CPU      3.71s WALL (     200 calls)

     Called by h_psi:
     h_psi:calbec :      8.67s CPU      8.84s WALL (     300 calls)
     vloc_psi     :   1625.50s CPU   1636.13s WALL (     300 calls)
     add_vuspsi   :      7.13s CPU      7.19s WALL (     300 calls)

     General routines
     calbec       :     10.15s CPU     10.31s WALL (     350 calls)
     fft          :      5.78s CPU      6.19s WALL (     131 calls)
     ffts         :      1.18s CPU      1.20s WALL (      18 calls)
     fftw         :   1186.67s CPU   1198.14s WALL (   41696 calls)
     interpolate  :      1.26s CPU      1.30s WALL (       9 calls)

     Parallel routines

     PWSCF        :  34m59.57s CPU  42m 4.68s WALL


   This run was terminated on:  19:42:11  10Nov2024            

=------------------------------------------------------------------------------=
   JOB DONE.
=------------------------------------------------------------------------------=
