 ANIMSTEPS   7
 CRYSTAL 
 PRIMVEC 
  5.1685000000  0.0000000000  0.0000000000
  0.0000000000  5.1685000000  0.0000000000
  0.0000000000  0.0000000000  6.2565000000
 PRIMCOORD   1
   15  1
Li    1.6064460000    3.5476540000    4.6859960000   -0.0000067642    0.0000182259   -0.0000190905
Li    3.5476540000    1.6064460000    1.5705040000    0.0000182259   -0.0000067642    0.0000190905
Li    4.2033670000    4.2033670000    0.0000000000   -0.0000017009   -0.0000017009    0.0000000000
Al    3.5034470000    1.6886670000    4.6979390000    0.0000686907   -0.0000135022   -0.0000487348
Al    1.6886670000    3.5034470000    1.5585610000   -0.0000135022    0.0000686907    0.0000487348
Al    4.2772360000    4.2772360000    3.1282500000    0.0000238879    0.0000238879    0.0000000000
Al    0.8829050000    0.8829050000    0.0000000000   -0.0000617995   -0.0000617995    0.0000000000
 O    4.3119320000    1.0683270000    6.1271450000   -0.0000102057    0.0000062005   -0.0000073886
 O    0.8331180000    3.9840640000    3.0026850000   -0.0000109677    0.0000069006   -0.0000340657
 O    3.6874810000    3.4413520000    4.5647000000    0.0000001612    0.0000010803   -0.0000016834
 O    1.5687160000    1.7592060000    1.3453290000    0.0000128126   -0.0000330193    0.0000262449
 O    3.9840640000    0.8331180000    3.2538150000    0.0000069006   -0.0000109677    0.0000340657
 O    1.0683270000    4.3119320000    0.1293550000    0.0000062005   -0.0000102057    0.0000073886
 O    3.4413520000    3.6874810000    1.6918000000    0.0000010803    0.0000001612    0.0000016834
 O    1.7592060000    1.5687160000    4.9111710000   -0.0000330193    0.0000128126   -0.0000262449
 PRIMCOORD   2
   15  1
Li    1.5204935741    3.5408350941    4.7612818285    0.0001060824   -0.0011959964   -0.0009023869
Li    3.4712733195    1.1792166401    1.5109574378   -0.0137213864    0.0054410351    0.0107529917
Li    4.1801466899    4.1282417493    0.0085225897   -0.0019417945    0.0042402443    0.0011115971
Al    3.4225280463    1.7057986410    4.7190172840    0.0081952660    0.0001828569    0.0010345924
Al    1.6324862441    3.5009847535    1.6257140171    0.0002648852   -0.0024568278   -0.0011877983
Al    4.2039300553    4.2959839851    3.1963623009    0.0034848575    0.0012457611   -0.0026632164
Al    0.8432127327    0.8833474091    0.0696633966    0.0025684563    0.0002641467   -0.0057769417
 O    4.3000457321    1.1183818475    6.1168623800   -0.0042513846   -0.0005249178    0.0040775958
 O    0.7351564980    3.9059985903    3.0671917925    0.0014549430    0.0015828611    0.0001173701
 O    3.5484226108    3.4625795828    4.5919321999    0.0021596137    0.0012814442   -0.0001300552
 O    1.6203628357    1.7569541133    1.3804376294   -0.0063259921   -0.0021510550   -0.0019808493
 O    3.9704194693    0.8638676416    3.3001479484    0.0037830247    0.0012716800    0.0003729066
 O    0.9510472055    4.3021443229    0.2134639720    0.0031077361   -0.0006694878   -0.0025652422
 O    3.3311429410    3.9534491707    1.7070065027   -0.0001800729   -0.0066968193    0.0011167092
 O    1.6993253633    1.5434842907    4.9639507539    0.0012957655   -0.0018149251   -0.0033772729
 PRIMCOORD   3
   15  1
Li    1.6055759478    3.5879960470    4.6859395976   -0.0011771827   -0.0000608905    0.0013244076
Li    3.0784984109    0.8866937051    1.7307508768    0.0177142980    0.0088053236   -0.0155341279
Li    4.1871620644    4.2002303197    0.0365272469    0.0002538087   -0.0024141300   -0.0002674208
Al    3.4407399924    1.6993583833    4.7703566007    0.0000647173   -0.0013837013    0.0058261546
Al    1.6574306584    3.5050950369    1.5514720419   -0.0019132076    0.0073405639    0.0036631087
Al    4.2864315860    4.2829562215    3.2008286138   -0.0067166323    0.0016222907    0.0008121014
Al    0.7808405593    0.9178709714   -0.0005411319    0.0065077837    0.0045267475    0.0040435565
 O    4.2172432576    1.0639746468    6.2107888996   -0.0088865517    0.0019404221   -0.0003840808
 O    0.8189042280    3.9978021188    3.0075125175    0.0027615319   -0.0032272394   -0.0014482662
 O    3.6734857464    3.4405308851    4.6139317811   -0.0020670093   -0.0007594681    0.0001646011
 O    1.4921432892    1.7873206515    1.3513763491   -0.0015581807   -0.0072632419   -0.0039146957
 O    3.9888413715    0.8417126219    3.3665461665   -0.0005941935   -0.0043307114   -0.0018900062
 O    1.0394412080    4.3495004259    0.1283346523   -0.0007555593   -0.0027112203    0.0026604912
 O    3.3501363940    3.9446374415    1.7384454829    0.0004304542   -0.0000766507    0.0004020467
 O    1.6866246333    1.6054320369    4.9168031967   -0.0040640767   -0.0020080941    0.0045421298
 PRIMCOORD   4
   15  1
Li    1.6182084506    3.5806423257    4.6563268359    0.0003950430    0.0000855132    0.0002517143
Li    2.6891721166    0.7470327316    2.1170220254    0.0083202897    0.0017893211   -0.0082267221
Li    4.1852075290    4.2388270303    0.0306695128   -0.0002203142   -0.0009838974    0.0008051762
Al    3.4827832912    1.7243430167    4.7518521707   -0.0036707425    0.0036240981    0.0065103883
Al    1.6772510876    3.4899197152    1.5202405051   -0.0008850390    0.0048013761    0.0022262976
Al    4.3362010958    4.2973474865    3.1717461155   -0.0042292900    0.0037465033    0.0007506388
Al    0.8364816656    0.9208938620   -0.0532843826   -0.0005109786    0.0007217964    0.0023937426
 O    4.2718184714    1.0637671140    6.1528784319   -0.0030790784   -0.0002107401    0.0009114198
 O    0.8740993124    4.0549489766    2.9705339973    0.0029711549   -0.0022768447   -0.0015081220
 O    3.7118714388    3.4636464146    4.5897242242   -0.0007115040   -0.0029109693    0.0016979123
 O    1.4620547750    1.7897791856    1.3257192228   -0.0025733434   -0.0036867059   -0.0026540604
 O    4.0188621365    0.8518007410    3.3635551093    0.0036924652   -0.0082636148   -0.0046350415
 O    1.0761572092    4.3471788261    0.0990618298   -0.0002516711    0.0009767556   -0.0000038837
 O    3.3626023123    3.9441520271    1.7343476081   -0.0004625035    0.0015480874    0.0017348381
 O    1.7267639846    1.6030390503    4.8629214016    0.0012155118    0.0010393210   -0.0002542982
 PRIMCOORD   5
   15  1
Li    1.6259942045    3.5673876265    4.6389110208    0.0004934682   -0.0003787519   -0.0009550016
Li    2.2938808835    0.6845219373    2.5253167315   -0.0135923451   -0.0015636310    0.0134283656
Li    4.1946333484    4.2614229362    0.0161250447    0.0001731394    0.0005036220    0.0001762123
Al    3.5131944650    1.7526696102    4.7275689975    0.0015133178   -0.0003832098    0.0000087561
Al    1.7018406334    3.4788266392    1.4969966219    0.0018005686    0.0036787193   -0.0003995532
Al    4.3646704413    4.3189669383    3.1348529937    0.0013198698    0.0005862267   -0.0002593060
Al    0.9025262717    0.9180946542   -0.0827889860    0.0038699575    0.0015775873    0.0004522566
 O    4.3352360030    1.0626750915    6.0892828960   -0.0001871420    0.0004115066   -0.0027763909
 O    0.9231923818    4.1164875196    2.9395980317    0.0019652202    0.0021337563   -0.0016826780
 O    3.7401382320    3.4827842236    4.5613842347    0.0017874105    0.0009610086   -0.0006745364
 O    1.4809900753    1.7791551727    1.3215201595   -0.0002646187   -0.0048063962   -0.0023406427
 O    4.0118103865    0.8562659284    3.3205832415   -0.0006893363    0.0003740042   -0.0010276130
 O    1.1032268633    4.3386551188    0.0755313893    0.0015089842   -0.0009189948   -0.0006283663
 O    3.3922065918    3.9183519205    1.7162186194   -0.0000171713   -0.0013477051   -0.0008259657
 O    1.7631324442    1.5851390023    4.8018404718    0.0003186770   -0.0008277422   -0.0024955367
 PRIMCOORD   6
   15  1
Li    1.6499090786    3.5586744714    4.6421536603   -0.0002505276   -0.0004738016   -0.0006719907
Li    1.7587578740    0.7936834246    2.9460243356   -0.0055647636    0.0014498481    0.0054776267
Li    4.2317786872    4.2477783957   -0.0217237906    0.0005765742    0.0004107799   -0.0003411385
Al    3.5337008862    1.7490561721    4.6836953911    0.0018879939   -0.0014340393   -0.0008709955
Al    1.7411433527    3.4911172882    1.5043390748    0.0007205335    0.0001920435    0.0000500793
Al    4.3545846873    4.3107685302    3.0916361211   -0.0001942475   -0.0004986705   -0.0009123303
Al    0.9572939386    0.9236650384   -0.0690450616    0.0025078894    0.0003594998    0.0009154402
 O    4.3864763513    1.0424110594    6.0193550424    0.0001054108    0.0007087222   -0.0028201858
 O    0.9373154320    4.1421674207    2.9396787925   -0.0001178044    0.0009935761   -0.0006019556
 O    3.7522896384    3.4768148433    4.5279314388    0.0009900430    0.0013284702   -0.0009299685
 O    1.4685450568    1.7765630299    1.3667752941    0.0006800047   -0.0014256662    0.0014244060
 O    3.9809065075    0.8413670623    3.2608330376   -0.0034901739    0.0010313691   -0.0007825868
 O    1.1528409362    4.3402374271    0.0740624492    0.0013532759   -0.0007724516   -0.0004193658
 O    3.4610509555    3.8121111302    1.6620083767    0.0011707220   -0.0024087463   -0.0010228432
 O    1.7797864755    1.5672395848    4.7764456829   -0.0003749305    0.0005390666    0.0015058086
 PRIMCOORD   7
   15  1
Li    1.6191070000    3.5493930000    4.6923750000   -0.0000012590    0.0000012590    0.0000000000
Li    0.9634220000    0.9778060000    3.1218350000    0.0000158077    0.0000057398   -0.0000154097
Li    4.1906940000    4.2050780000    0.0064150000   -0.0000057398   -0.0000158077    0.0000154097
Al    3.4671410000    1.7013590000    4.6923750000   -0.0000523658    0.0000523658    0.0000000000
Al    1.6929930000    3.4755070000    1.5641250000    0.0000194635   -0.0000194635    0.0000000000
Al    4.2729220000    4.2493010000    3.1338160000   -0.0000136757   -0.0000576622   -0.0000401473
Al    0.9191990000    0.8955780000   -0.0055660000    0.0000576622    0.0000136757    0.0000401473
 O    4.3434380000    1.0155270000    6.0377160000   -0.0000283962   -0.0000103114    0.0000197655
 O    0.8571020000    4.0652700000    3.0005710000    0.0000040465   -0.0000018311   -0.0000025766
 O    3.6525840000    3.4408330000    4.5630350000    0.0000030675    0.0000064956   -0.0000067520
 O    1.3998300000    1.7511330000    1.4385350000    0.0000068348    0.0000110924   -0.0000276281
 O    4.1529730000    0.8250620000    3.3470340000    0.0000103114    0.0000283962   -0.0000197655
 O    1.1032300000    4.3113980000    0.1276790000    0.0000018311   -0.0000040465    0.0000025766
 O    3.4173670000    3.7686700000    1.6897150000   -0.0000110924   -0.0000068348    0.0000276281
 O    1.7276670000    1.5159160000    4.8217150000   -0.0000064956   -0.0000030675    0.0000067520
