
     Program PWSCF v.7.3.1 starts on 11Nov2024 at 18: 9:24 

     This program is part of the open-source Quantum ESPRESSO suite
     for quantum simulation of materials; please cite
         "P. Giannozzi et al., J. Phys.:Condens. Matter 21 395502 (2009);
         "P. Giannozzi et al., J. Phys.:Condens. Matter 29 465901 (2017);
         "P. Giannozzi et al., J. Chem. Phys. 152 154105 (2020);
          URL http://www.quantum-espresso.org", 
     in publications or presentations arising from this work. More details at
     http://www.quantum-espresso.org/quote

     Parallel version (MPI & OpenMP), running on       4 processor cores
     Number of MPI processes:                 4
     Threads/MPI process:                     1

     MPI processes distributed on     1 nodes
     2309829 MiB available memory on the printing compute node when the environment starts

     Reading input from LAC_relax.in

     Current dimensions of program PWSCF are:
     Max number of different atomic species (ntypx) = 10
     Max number of k-points (npk) =  40000
     Max angular momentum in pseudopotentials (lmaxx) =  4
     file Li.pbe-tm-gipaw-dc.UPF: wavefunction(s)  2S 2P 3S 3P renormalized
     WARNING: atomic wfc #  3 for atom typeAl has zero norm
     WARNING: atomic wfc #  4 for atom typeAl has zero norm
     Message from routine setup:
     using ibrav=0 with symmetry is DISCOURAGED, use correct ibrav instead

     R & G space division:  proc/nbgrp/npool/nimage =       4
     Subspace diagonalization in iterative solution of the eigenvalue problem:
     a serial algorithm will be used


     Parallelization info
     --------------------
     sticks:   dense  smooth     PW     G-vecs:    dense   smooth      PW
     Min        1940    1294    343               247428   134672   18391
     Max        1941    1295    344               247431   134674   18394
     Sum        7761    5179   1375               989717   538691   73571

     Using Slab Decomposition



     bravais-lattice index     =            0
     lattice parameter (alat)  =      12.2889  a.u.
     unit-cell volume          =    3987.9110 (a.u.)^3
     number of atoms/cell      =           24
     number of atomic types    =            3
     number of electrons       =       128.00
     number of Kohn-Sham states=           64
     kinetic-energy cutoff     =     100.0000  Ry
     charge density cutoff     =     600.0000  Ry
     scf convergence threshold =      1.0E-06
     mixing beta               =       0.4000
     number of iterations used =            8  plain     mixing
     energy convergence thresh.=      1.0E-04
     force convergence thresh. =      1.0E-03
     Exchange-correlation=  SLA  PW   PBX  PBC
                           (   1   4   3   4   0   0   0)
     nstep                     =           50


     celldm(1)=  12.288889  celldm(2)=   0.000000  celldm(3)=   0.000000
     celldm(4)=   0.000000  celldm(5)=   0.000000  celldm(6)=   0.000000

     crystal axes: (cart. coord. in units of alat)
               a(1) = (  -0.000000  -1.000000  -0.000000 )  
               a(2) = (  -1.075255   0.000000   0.061999 )  
               a(3) = (   0.000000   0.000000  -1.998462 )  

     reciprocal axes: (cart. coord. in units 2 pi/alat)
               b(1) = ( -0.000000 -1.000000 -0.000000 )  
               b(2) = ( -0.930012  0.000000  0.000000 )  
               b(3) = ( -0.028852  0.000000 -0.500385 )  


     PseudoPot. # 1 for Li read from file:
     /home/cgurwell/projects/rrg-ravh011/cgurwell/pseudo/Li.pbe-tm-gipaw-dc.UPF
     MD5 check sum: 258bf1e32d815cbe0990be85d5d6a6e5
     Pseudo is Norm-conserving + core correction, Zval =  1.0
     Generated by new atomic code, or converted to UPF format
     Using radial grid of 1371 points,  1 beta functions with: 
                l(1) =   0

     PseudoPot. # 2 for Al read from file:
     /home/cgurwell/projects/rrg-ravh011/cgurwell/pseudo/Al.pbe-tm-gipaw-dc.UPF
     MD5 check sum: efdf9c81b1c08458edd46fe92d869955
     Pseudo is Norm-conserving, Zval =  3.0
     Generated by new atomic code, or converted to UPF format
     Using radial grid of 1519 points,  2 beta functions with: 
                l(1) =   0
                l(2) =   1

     PseudoPot. # 3 for Cl read from file:
     /home/cgurwell/projects/rrg-ravh011/cgurwell/pseudo/Cl.pbe-tm-gipaw.UPF
     MD5 check sum: 6263502ce953d769893a136fffc16e2a
     Pseudo is Norm-conserving, Zval =  7.0
     Generated by new atomic code, or converted to UPF format
     Using radial grid of 1157 points,  2 beta functions with: 
                l(1) =   0
                l(2) =   1

     atomic species   valence    mass     pseudopotential
     Li                1.00     6.94100     Li( 1.00)
     Al                3.00    26.98154     Al( 1.00)
     Cl                7.00    35.45300     Cl( 1.00)

      4 Sym. Ops., with inversion, found ( 2 have fractional translation)


                                    s                        frac. trans.

      isym =  1     identity                                     

 cryst.   s( 1) = (     1          0          0      )
                  (     0          1          0      )
                  (     0          0          1      )

 cart.    s( 1) = (  1.0000000  0.0000000  0.0000000 )
                  (  0.0000000  1.0000000  0.0000000 )
                  (  0.0000000  0.0000000  1.0000000 )


      isym =  2     180 deg rotation - cart. axis [0,1,0]        

 cryst.   s( 2) = (     1          0          0      )    f =( -0.5000000 )
                  (     0         -1          0      )       (  0.0000000 )
                  (     0          0         -1      )       (  0.5000000 )

 cart.    s( 2) = ( -1.0000000  0.0000000  0.0000000 )    f =(  0.0000000 )
                  (  0.0000000  1.0000000  0.0000000 )       (  0.5000000 )
                  ( -0.0000000  0.0000000 -1.0000000 )       ( -0.9992311 )


      isym =  3     inversion                                    

 cryst.   s( 3) = (    -1          0          0      )
                  (     0         -1          0      )
                  (     0          0         -1      )

 cart.    s( 3) = ( -1.0000000  0.0000000  0.0000000 )
                  (  0.0000000 -1.0000000  0.0000000 )
                  ( -0.0000000  0.0000000 -1.0000000 )


      isym =  4     inv. 180 deg rotation - cart. axis [0,1,0]   

 cryst.   s( 4) = (    -1          0          0      )    f =(  0.5000000 )
                  (     0          1          0      )       (  0.0000000 )
                  (     0          0          1      )       ( -0.5000000 )

 cart.    s( 4) = (  1.0000000  0.0000000  0.0000000 )    f =( -0.0000000 )
                  (  0.0000000 -1.0000000  0.0000000 )       ( -0.5000000 )
                  (  0.0000000  0.0000000  1.0000000 )       (  0.9992311 )


   Cartesian axes

     site n.     atom                  positions (alat units)
         1        Li     tau(   1) = (  -0.9056877  -0.4850000  -0.2183702  )
         2        Li     tau(   2) = (  -0.1695678  -0.9850000  -0.7188621  )
         3        Li     tau(   3) = (  -0.1695678  -0.5150000  -1.7180932  )
         4        Li     tau(   4) = (  -0.9056877  -0.0150000  -1.2176013  )
         5        Al     tau(   5) = (  -0.3162326  -0.8217000  -1.1827820  )
         6        Al     tau(   6) = (  -0.7590228  -0.3217000  -1.7529125  )
         7        Al     tau(   7) = (  -0.7590228  -0.1783000  -0.7536814  )
         8        Al     tau(   8) = (  -0.3162326  -0.6783000  -0.1835509  )
         9        Cl     tau(   9) = (  -0.3292432  -0.6832000  -0.8869788  )
        10        Cl     tau(  10) = (  -0.7460122  -0.1832000  -0.0502534  )
        11        Cl     tau(  11) = (  -0.7460122  -0.3168000  -1.0494846  )
        12        Cl     tau(  12) = (  -0.3292432  -0.8168000  -1.8862100  )
        13        Cl     tau(  13) = (  -0.2058039  -0.1281000  -1.1300747  )
        14        Cl     tau(  14) = (  -0.8694515  -0.6281000  -1.8056198  )
        15        Cl     tau(  15) = (  -0.8694515  -0.8719000  -0.8063887  )
        16        Cl     tau(  16) = (  -0.2058039  -0.3719000  -0.1308436  )
        17        Cl     tau(  17) = (  -0.0801065  -0.6812000  -1.3666060  )
        18        Cl     tau(  18) = (  -0.9951489  -0.1812000  -1.5690886  )
        19        Cl     tau(  19) = (  -0.9951489  -0.3188000  -0.5698574  )
        20        Cl     tau(  20) = (  -0.0801065  -0.8188000  -0.3673748  )
        21        Cl     tau(  21) = (  -0.6024656  -0.8140000  -1.3383055  )
        22        Cl     tau(  22) = (  -0.4727898  -0.3140000  -1.5973890  )
        23        Cl     tau(  23) = (  -0.4727898  -0.1860000  -0.5981579  )
        24        Cl     tau(  24) = (  -0.6024656  -0.6860000  -0.3390744  )

   Crystallographic axes

     site n.     atom                  positions (cryst. coord.)
         1        Li     tau(   1) = (  0.4850000  0.8423000  0.1354000  )
         2        Li     tau(   2) = (  0.9850000  0.1577000  0.3646000  )
         3        Li     tau(   3) = (  0.5150000  0.1577000  0.8646000  )
         4        Li     tau(   4) = (  0.0150000  0.8423000  0.6354000  )
         5        Al     tau(   5) = (  0.8217000  0.2941000  0.6009700  )
         6        Al     tau(   6) = (  0.3217000  0.7059000  0.8990300  )
         7        Al     tau(   7) = (  0.1783000  0.7059000  0.3990300  )
         8        Al     tau(   8) = (  0.6783000  0.2941000  0.1009700  )
         9        Cl     tau(   9) = (  0.6832000  0.3062000  0.4533300  )
        10        Cl     tau(  10) = (  0.1832000  0.6938000  0.0466700  )
        11        Cl     tau(  11) = (  0.3168000  0.6938000  0.5466700  )
        12        Cl     tau(  12) = (  0.8168000  0.3062000  0.9533300  )
        13        Cl     tau(  13) = (  0.1281000  0.1914000  0.5714100  )
        14        Cl     tau(  14) = (  0.6281000  0.8086000  0.9285900  )
        15        Cl     tau(  15) = (  0.8719000  0.8086000  0.4285900  )
        16        Cl     tau(  16) = (  0.3719000  0.1914000  0.0714100  )
        17        Cl     tau(  17) = (  0.6812000  0.0745000  0.6861400  )
        18        Cl     tau(  18) = (  0.1812000  0.9255000  0.8138600  )
        19        Cl     tau(  19) = (  0.3188000  0.9255000  0.3138600  )
        20        Cl     tau(  20) = (  0.8188000  0.0745000  0.1861400  )
        21        Cl     tau(  21) = (  0.8140000  0.5603000  0.6870500  )
        22        Cl     tau(  22) = (  0.3140000  0.4397000  0.8129500  )
        23        Cl     tau(  23) = (  0.1860000  0.4397000  0.3129500  )
        24        Cl     tau(  24) = (  0.6860000  0.5603000  0.1870500  )

     number of k points=    39
                       cart. coord. in units 2pi/alat
        k(    1) = (  -0.0000000   0.0000000   0.0000000), wk =   0.0160000
        k(    2) = (  -0.0057704   0.0000000  -0.1000769), wk =   0.0320000
        k(    3) = (  -0.0115408   0.0000000  -0.2001539), wk =   0.0320000
        k(    4) = (  -0.1860023   0.0000000   0.0000000), wk =   0.0320000
        k(    5) = (  -0.1917727   0.0000000  -0.1000769), wk =   0.0320000
        k(    6) = (  -0.1975431   0.0000000  -0.2001539), wk =   0.0320000
        k(    7) = (  -0.1744615   0.0000000   0.2001539), wk =   0.0320000
        k(    8) = (  -0.1802319   0.0000000   0.1000769), wk =   0.0320000
        k(    9) = (  -0.3720046   0.0000000   0.0000000), wk =   0.0320000
        k(   10) = (  -0.3777750   0.0000000  -0.1000769), wk =   0.0320000
        k(   11) = (  -0.3835454   0.0000000  -0.2001539), wk =   0.0320000
        k(   12) = (  -0.3604638   0.0000000   0.2001539), wk =   0.0320000
        k(   13) = (  -0.3662342   0.0000000   0.1000769), wk =   0.0320000
        k(   14) = (  -0.0000000  -0.2000000   0.0000000), wk =   0.0320000
        k(   15) = (  -0.0057704  -0.2000000  -0.1000769), wk =   0.0640000
        k(   16) = (  -0.0115408  -0.2000000  -0.2001539), wk =   0.0640000
        k(   17) = (  -0.1860023  -0.2000000   0.0000000), wk =   0.0640000
        k(   18) = (  -0.1917727  -0.2000000  -0.1000769), wk =   0.0640000
        k(   19) = (  -0.1975431  -0.2000000  -0.2001539), wk =   0.0640000
        k(   20) = (  -0.1744615  -0.2000000   0.2001539), wk =   0.0640000
        k(   21) = (  -0.1802319  -0.2000000   0.1000769), wk =   0.0640000
        k(   22) = (  -0.3720046  -0.2000000   0.0000000), wk =   0.0640000
        k(   23) = (  -0.3777750  -0.2000000  -0.1000769), wk =   0.0640000
        k(   24) = (  -0.3835454  -0.2000000  -0.2001539), wk =   0.0640000
        k(   25) = (  -0.3604638  -0.2000000   0.2001539), wk =   0.0640000
        k(   26) = (  -0.3662342  -0.2000000   0.1000769), wk =   0.0640000
        k(   27) = (  -0.0000000  -0.4000000   0.0000000), wk =   0.0320000
        k(   28) = (  -0.0057704  -0.4000000  -0.1000769), wk =   0.0640000
        k(   29) = (  -0.0115408  -0.4000000  -0.2001539), wk =   0.0640000
        k(   30) = (  -0.1860023  -0.4000000   0.0000000), wk =   0.0640000
        k(   31) = (  -0.1917727  -0.4000000  -0.1000769), wk =   0.0640000
        k(   32) = (  -0.1975431  -0.4000000  -0.2001539), wk =   0.0640000
        k(   33) = (  -0.1744615  -0.4000000   0.2001539), wk =   0.0640000
        k(   34) = (  -0.1802319  -0.4000000   0.1000769), wk =   0.0640000
        k(   35) = (  -0.3720046  -0.4000000   0.0000000), wk =   0.0640000
        k(   36) = (  -0.3777750  -0.4000000  -0.1000769), wk =   0.0640000
        k(   37) = (  -0.3835454  -0.4000000  -0.2001539), wk =   0.0640000
        k(   38) = (  -0.3604638  -0.4000000   0.2001539), wk =   0.0640000
        k(   39) = (  -0.3662342  -0.4000000   0.1000769), wk =   0.0640000

                       cryst. coord.
        k(    1) = (   0.0000000   0.0000000   0.0000000), wk =   0.0160000
        k(    2) = (   0.0000000  -0.0000000   0.2000000), wk =   0.0320000
        k(    3) = (   0.0000000  -0.0000000   0.4000000), wk =   0.0320000
        k(    4) = (   0.0000000   0.2000000   0.0000000), wk =   0.0320000
        k(    5) = (   0.0000000   0.2000000   0.2000000), wk =   0.0320000
        k(    6) = (   0.0000000   0.2000000   0.4000000), wk =   0.0320000
        k(    7) = (   0.0000000   0.2000000  -0.4000000), wk =   0.0320000
        k(    8) = (   0.0000000   0.2000000  -0.2000000), wk =   0.0320000
        k(    9) = (   0.0000000   0.4000000   0.0000000), wk =   0.0320000
        k(   10) = (   0.0000000   0.4000000   0.2000000), wk =   0.0320000
        k(   11) = (   0.0000000   0.4000000   0.4000000), wk =   0.0320000
        k(   12) = (   0.0000000   0.4000000  -0.4000000), wk =   0.0320000
        k(   13) = (   0.0000000   0.4000000  -0.2000000), wk =   0.0320000
        k(   14) = (   0.2000000   0.0000000  -0.0000000), wk =   0.0320000
        k(   15) = (   0.2000000  -0.0000000   0.2000000), wk =   0.0640000
        k(   16) = (   0.2000000  -0.0000000   0.4000000), wk =   0.0640000
        k(   17) = (   0.2000000   0.2000000  -0.0000000), wk =   0.0640000
        k(   18) = (   0.2000000   0.2000000   0.2000000), wk =   0.0640000
        k(   19) = (   0.2000000   0.2000000   0.4000000), wk =   0.0640000
        k(   20) = (   0.2000000   0.2000000  -0.4000000), wk =   0.0640000
        k(   21) = (   0.2000000   0.2000000  -0.2000000), wk =   0.0640000
        k(   22) = (   0.2000000   0.4000000  -0.0000000), wk =   0.0640000
        k(   23) = (   0.2000000   0.4000000   0.2000000), wk =   0.0640000
        k(   24) = (   0.2000000   0.4000000   0.4000000), wk =   0.0640000
        k(   25) = (   0.2000000   0.4000000  -0.4000000), wk =   0.0640000
        k(   26) = (   0.2000000   0.4000000  -0.2000000), wk =   0.0640000
        k(   27) = (   0.4000000   0.0000000  -0.0000000), wk =   0.0320000
        k(   28) = (   0.4000000  -0.0000000   0.2000000), wk =   0.0640000
        k(   29) = (   0.4000000  -0.0000000   0.4000000), wk =   0.0640000
        k(   30) = (   0.4000000   0.2000000  -0.0000000), wk =   0.0640000
        k(   31) = (   0.4000000   0.2000000   0.2000000), wk =   0.0640000
        k(   32) = (   0.4000000   0.2000000   0.4000000), wk =   0.0640000
        k(   33) = (   0.4000000   0.2000000  -0.4000000), wk =   0.0640000
        k(   34) = (   0.4000000   0.2000000  -0.2000000), wk =   0.0640000
        k(   35) = (   0.4000000   0.4000000  -0.0000000), wk =   0.0640000
        k(   36) = (   0.4000000   0.4000000   0.2000000), wk =   0.0640000
        k(   37) = (   0.4000000   0.4000000   0.4000000), wk =   0.0640000
        k(   38) = (   0.4000000   0.4000000  -0.4000000), wk =   0.0640000
        k(   39) = (   0.4000000   0.4000000  -0.2000000), wk =   0.0640000

     Dense  grid:   989717 G-vectors     FFT dimensions: (  96, 108, 192)

     Smooth grid:   538691 G-vectors     FFT dimensions: (  80,  90, 160)

     Dynamical RAM for                 wfc:      16.44 MB

     Dynamical RAM for     wfc (w. buffer):     657.62 MB

     Dynamical RAM for           str. fact:      11.33 MB

     Dynamical RAM for           local pot:       0.00 MB

     Dynamical RAM for          nlocal pot:      21.58 MB

     Dynamical RAM for                qrad:       0.51 MB

     Dynamical RAM for          rho,v,vnew:      22.72 MB

     Dynamical RAM for               rhoin:       7.57 MB

     Dynamical RAM for            rho*nmix:      60.41 MB

     Dynamical RAM for           G-vectors:      15.19 MB

     Dynamical RAM for          h,s,v(r/c):       0.75 MB

     Dynamical RAM for          <psi|beta>:       0.08 MB

     Dynamical RAM for                 psi:      32.88 MB

     Dynamical RAM for                hpsi:      32.88 MB

     Dynamical RAM for      wfcinit/wfcrot:     109.95 MB

     Estimated static dynamical RAM per process >     770.59 MB

     Estimated max dynamical RAM per process >     940.94 MB

     Estimated total dynamical RAM >       3.68 GB

     Initial potential from superposition of free atoms

     starting charge     117.3963, renormalised to     128.0000
     Starting wfcs are  212 randomized atomic wfcs

     total cpu time spent up to now is      126.3 secs

     Self-consistent Calculation

     iteration #  1     ecut=   100.00 Ry     beta= 0.40
     Davidson diagonalization with overlap

---- Real-time Memory Report at c_bands before calling an iterative solver
          1059 MiB given to the printing process from OS
             0 MiB allocation reported by mallinfo(arena+hblkhd)
      -1888402 MiB available memory on the node where the printing process lives
------------------
     ethr =  1.00E-02,  avg # of iterations =  2.0

     Threshold (ethr) on eigenvalues was too large:
     Diagonalizing with lowered threshold

     Davidson diagonalization with overlap

---- Real-time Memory Report at c_bands before calling an iterative solver
          1059 MiB given to the printing process from OS
             0 MiB allocation reported by mallinfo(arena+hblkhd)
      -1888880 MiB available memory on the node where the printing process lives
------------------
     ethr =  2.24E-04,  avg # of iterations =  3.0

     total cpu time spent up to now is      348.2 secs

     total energy              =    -501.67281857 Ry
     estimated scf accuracy    <       0.33891514 Ry

     iteration #  2     ecut=   100.00 Ry     beta= 0.40
     Davidson diagonalization with overlap

---- Real-time Memory Report at c_bands before calling an iterative solver
          1059 MiB given to the printing process from OS
             0 MiB allocation reported by mallinfo(arena+hblkhd)
      -1890193 MiB available memory on the node where the printing process lives
------------------
     ethr =  2.65E-04,  avg # of iterations =  1.0

     total cpu time spent up to now is      433.9 secs

     total energy              =    -501.68941420 Ry
     estimated scf accuracy    <       0.08739243 Ry

     iteration #  3     ecut=   100.00 Ry     beta= 0.40
     Davidson diagonalization with overlap

---- Real-time Memory Report at c_bands before calling an iterative solver
          1061 MiB given to the printing process from OS
             0 MiB allocation reported by mallinfo(arena+hblkhd)
      -1890897 MiB available memory on the node where the printing process lives
------------------
     ethr =  6.83E-05,  avg # of iterations =  2.0

     total cpu time spent up to now is      549.4 secs

     total energy              =    -501.69903387 Ry
     estimated scf accuracy    <       0.01162203 Ry

     iteration #  4     ecut=   100.00 Ry     beta= 0.40
     Davidson diagonalization with overlap

---- Real-time Memory Report at c_bands before calling an iterative solver
          1065 MiB given to the printing process from OS
             0 MiB allocation reported by mallinfo(arena+hblkhd)
      -1890391 MiB available memory on the node where the printing process lives
------------------
     ethr =  9.08E-06,  avg # of iterations =  2.0

     total cpu time spent up to now is      672.9 secs

     total energy              =    -501.70169238 Ry
     estimated scf accuracy    <       0.00516110 Ry

     iteration #  5     ecut=   100.00 Ry     beta= 0.40
     Davidson diagonalization with overlap

---- Real-time Memory Report at c_bands before calling an iterative solver
          1069 MiB given to the printing process from OS
             0 MiB allocation reported by mallinfo(arena+hblkhd)
      -1890996 MiB available memory on the node where the printing process lives
------------------
     ethr =  4.03E-06,  avg # of iterations =  2.0

     total cpu time spent up to now is      783.9 secs

     total energy              =    -501.70210711 Ry
     estimated scf accuracy    <       0.00039305 Ry

     iteration #  6     ecut=   100.00 Ry     beta= 0.40
     Davidson diagonalization with overlap

---- Real-time Memory Report at c_bands before calling an iterative solver
          1073 MiB given to the printing process from OS
             0 MiB allocation reported by mallinfo(arena+hblkhd)
      -1891673 MiB available memory on the node where the printing process lives
------------------
     ethr =  3.07E-07,  avg # of iterations =  3.0

     total cpu time spent up to now is      929.9 secs

     total energy              =    -501.70226822 Ry
     estimated scf accuracy    <       0.00041819 Ry

     iteration #  7     ecut=   100.00 Ry     beta= 0.40
     Davidson diagonalization with overlap

---- Real-time Memory Report at c_bands before calling an iterative solver
          1077 MiB given to the printing process from OS
             0 MiB allocation reported by mallinfo(arena+hblkhd)
      -1893642 MiB available memory on the node where the printing process lives
------------------
     ethr =  3.07E-07,  avg # of iterations =  2.0

     total cpu time spent up to now is     1046.0 secs

     total energy              =    -501.70231995 Ry
     estimated scf accuracy    <       0.00001614 Ry

     iteration #  8     ecut=   100.00 Ry     beta= 0.40
     Davidson diagonalization with overlap

---- Real-time Memory Report at c_bands before calling an iterative solver
          1081 MiB given to the printing process from OS
             0 MiB allocation reported by mallinfo(arena+hblkhd)
      -1894371 MiB available memory on the node where the printing process lives
------------------
     ethr =  1.26E-08,  avg # of iterations =  3.0

     total cpu time spent up to now is     1180.9 secs

     End of self-consistent calculation

          k =-0.0000 0.0000 0.0000 ( 67371 PWs)   bands (ev):

   -13.6808 -13.5200 -13.5035 -13.3667 -12.9884 -12.9863 -12.9377 -12.8986
   -12.8977 -12.8923 -12.8653 -12.8627 -12.7785 -12.7673 -12.7202 -12.7089
    -4.1247  -4.0787  -4.0641  -4.0198  -2.7963  -2.7400  -2.4982  -2.4416
    -2.3757  -2.3676  -2.3194  -2.1869  -2.1397  -2.1309  -2.0972  -1.9274
    -1.6476  -1.5332  -1.5252  -1.4575  -1.3459  -1.3173  -1.2510  -1.1956
    -1.1657  -1.0879  -0.9509  -0.9252  -0.8735  -0.7736  -0.6821  -0.6692
    -0.5299  -0.5280  -0.5227  -0.3700  -0.3543  -0.3345  -0.3303  -0.2546
    -0.1391  -0.1215  -0.0545  -0.0261  -0.0173   0.0416   0.0452   0.0578

     occupation numbers 
     1.0000   1.0000   1.0000   1.0000   1.0000   1.0000   1.0000   1.0000
     1.0000   1.0000   1.0000   1.0000   1.0000   1.0000   1.0000   1.0000
     1.0000   1.0000   1.0000   1.0000   1.0000   1.0000   1.0000   1.0000
     1.0000   1.0000   1.0000   1.0000   1.0000   1.0000   1.0000   1.0000
     1.0000   1.0000   1.0000   1.0000   1.0000   1.0000   1.0000   1.0000
     1.0000   1.0000   1.0000   1.0000   1.0000   1.0000   1.0000   1.0000
     1.0000   1.0000   1.0000   1.0000   1.0000   1.0000   1.0000   1.0000
     1.0000   1.0000   1.0000   1.0000   1.0000   1.0000   1.0000   1.0000

          k =-0.0058 0.0000-0.1001 ( 67376 PWs)   bands (ev):

   -13.6726 -13.5644 -13.4607 -13.3720 -12.9892 -12.9881 -12.9346 -12.9058
   -12.8964 -12.8884 -12.8652 -12.8631 -12.7776 -12.7686 -12.7186 -12.7096
    -4.1228  -4.0911  -4.0512  -4.0208  -2.7908  -2.7456  -2.4917  -2.4285
    -2.3720  -2.3717  -2.3409  -2.1985  -2.1817  -2.0839  -2.0711  -1.9464
    -1.6703  -1.5875  -1.5014  -1.4606  -1.3414  -1.3345  -1.2350  -1.1687
    -1.1668  -1.0174  -0.9605  -0.9014  -0.8763  -0.7993  -0.6871  -0.6465
    -0.5947  -0.5398  -0.4390  -0.3946  -0.3705  -0.3334  -0.2953  -0.2587
    -0.1441  -0.1342  -0.0615  -0.0314  -0.0185   0.0255   0.0473   0.0535

     occupation numbers 
     1.0000   1.0000   1.0000   1.0000   1.0000   1.0000   1.0000   1.0000
     1.0000   1.0000   1.0000   1.0000   1.0000   1.0000   1.0000   1.0000
     1.0000   1.0000   1.0000   1.0000   1.0000   1.0000   1.0000   1.0000
     1.0000   1.0000   1.0000   1.0000   1.0000   1.0000   1.0000   1.0000
     1.0000   1.0000   1.0000   1.0000   1.0000   1.0000   1.0000   1.0000
     1.0000   1.0000   1.0000   1.0000   1.0000   1.0000   1.0000   1.0000
     1.0000   1.0000   1.0000   1.0000   1.0000   1.0000   1.0000   1.0000
     1.0000   1.0000   1.0000   1.0000   1.0000   1.0000   1.0000   1.0000

          k =-0.0115 0.0000-0.2002 ( 67356 PWs)   bands (ev):

   -13.6487 -13.6114 -13.4187 -13.3888 -12.9907 -12.9906 -12.9272 -12.9172
   -12.8915 -12.8878 -12.8649 -12.8641 -12.7750 -12.7717 -12.7151 -12.7117
    -4.1167  -4.1059  -4.0357  -4.0253  -2.7766  -2.7595  -2.4684  -2.4272
    -2.3797  -2.3655  -2.3405  -2.2849  -2.1400  -2.0845  -2.0161  -1.9767
    -1.6962  -1.6690  -1.4627  -1.4541  -1.3546  -1.3478  -1.2114  -1.1860
    -1.1022  -1.0313  -0.8968  -0.8467  -0.8343  -0.8118  -0.7583  -0.6847
    -0.5602  -0.5086  -0.4483  -0.4402  -0.3452  -0.3122  -0.2906  -0.2679
    -0.1570  -0.1426  -0.0622  -0.0538  -0.0139   0.0033   0.0445   0.0453

     occupation numbers 
     1.0000   1.0000   1.0000   1.0000   1.0000   1.0000   1.0000   1.0000
     1.0000   1.0000   1.0000   1.0000   1.0000   1.0000   1.0000   1.0000
     1.0000   1.0000   1.0000   1.0000   1.0000   1.0000   1.0000   1.0000
     1.0000   1.0000   1.0000   1.0000   1.0000   1.0000   1.0000   1.0000
     1.0000   1.0000   1.0000   1.0000   1.0000   1.0000   1.0000   1.0000
     1.0000   1.0000   1.0000   1.0000   1.0000   1.0000   1.0000   1.0000
     1.0000   1.0000   1.0000   1.0000   1.0000   1.0000   1.0000   1.0000
     1.0000   1.0000   1.0000   1.0000   1.0000   1.0000   1.0000   1.0000

          k =-0.1860 0.0000 0.0000 ( 67396 PWs)   bands (ev):

   -13.6508 -13.5067 -13.4897 -13.3898 -13.0031 -13.0009 -12.9566 -12.9324
   -12.9294 -12.8826 -12.8433 -12.8265 -12.7719 -12.7635 -12.7242 -12.7159
    -4.0887  -4.0480  -4.0164  -3.9929  -2.7681  -2.7065  -2.5311  -2.5017
    -2.3508  -2.2836  -2.2496  -2.2028  -2.1673  -2.1175  -2.0641  -1.9771
    -1.7125  -1.5339  -1.4728  -1.4559  -1.4104  -1.3349  -1.2870  -1.1789
    -1.1123  -1.0862  -0.9834  -0.8998  -0.8061  -0.8028  -0.7019  -0.6501
    -0.6326  -0.5112  -0.4967  -0.4234  -0.3705  -0.3383  -0.3268  -0.3052
    -0.1917  -0.1554  -0.1100  -0.0899  -0.0650  -0.0050   0.0713   0.0714

     occupation numbers 
     1.0000   1.0000   1.0000   1.0000   1.0000   1.0000   1.0000   1.0000
     1.0000   1.0000   1.0000   1.0000   1.0000   1.0000   1.0000   1.0000
     1.0000   1.0000   1.0000   1.0000   1.0000   1.0000   1.0000   1.0000
     1.0000   1.0000   1.0000   1.0000   1.0000   1.0000   1.0000   1.0000
     1.0000   1.0000   1.0000   1.0000   1.0000   1.0000   1.0000   1.0000
     1.0000   1.0000   1.0000   1.0000   1.0000   1.0000   1.0000   1.0000
     1.0000   1.0000   1.0000   1.0000   1.0000   1.0000   1.0000   1.0000
     1.0000   1.0000   1.0000   1.0000   1.0000   1.0000   1.0000   1.0000

          k =-0.1918 0.0000-0.1001 ( 67368 PWs)   bands (ev):

   -13.6416 -13.5486 -13.4525 -13.3931 -13.0089 -12.9864 -12.9581 -12.9405
   -12.9359 -12.8779 -12.8435 -12.8246 -12.7705 -12.7667 -12.7200 -12.7184
    -4.0928  -4.0345  -4.0294  -3.9881  -2.7666  -2.7100  -2.5418  -2.4707
    -2.3713  -2.2767  -2.2682  -2.1738  -2.1518  -2.1214  -2.0752  -2.0227
    -1.7175  -1.5191  -1.4717  -1.4520  -1.3658  -1.3595  -1.3024  -1.2063
    -1.0969  -1.0461  -0.9379  -0.8587  -0.8264  -0.8021  -0.7250  -0.7230
    -0.6733  -0.5130  -0.4604  -0.3797  -0.3569  -0.3559  -0.3314  -0.3299
    -0.1846  -0.1575  -0.1200  -0.0834  -0.0529  -0.0077   0.0672   0.0703

     occupation numbers 
     1.0000   1.0000   1.0000   1.0000   1.0000   1.0000   1.0000   1.0000
     1.0000   1.0000   1.0000   1.0000   1.0000   1.0000   1.0000   1.0000
     1.0000   1.0000   1.0000   1.0000   1.0000   1.0000   1.0000   1.0000
     1.0000   1.0000   1.0000   1.0000   1.0000   1.0000   1.0000   1.0000
     1.0000   1.0000   1.0000   1.0000   1.0000   1.0000   1.0000   1.0000
     1.0000   1.0000   1.0000   1.0000   1.0000   1.0000   1.0000   1.0000
     1.0000   1.0000   1.0000   1.0000   1.0000   1.0000   1.0000   1.0000
     1.0000   1.0000   1.0000   1.0000   1.0000   1.0000   1.0000   1.0000

          k =-0.1975 0.0000-0.2002 ( 67322 PWs)   bands (ev):

   -13.6181 -13.5905 -13.4214 -13.4041 -13.0169 -12.9813 -12.9483 -12.9431
   -12.9366 -12.8839 -12.8426 -12.8283 -12.7679 -12.7656 -12.7246 -12.7139
    -4.0905  -4.0520  -4.0143  -3.9863  -2.7560  -2.7249  -2.5311  -2.4265
    -2.3831  -2.2937  -2.2813  -2.2034  -2.1382  -2.1071  -2.0799  -2.0463
    -1.7147  -1.5944  -1.5030  -1.4581  -1.3804  -1.2910  -1.2544  -1.1944
    -1.0878  -0.9654  -0.9223  -0.8534  -0.8297  -0.8009  -0.7690  -0.6944
    -0.6815  -0.5536  -0.4813  -0.3782  -0.3769  -0.3416  -0.3246  -0.2933
    -0.2040  -0.1885  -0.1039  -0.0795  -0.0557  -0.0275   0.0630   0.0748

     occupation numbers 
     1.0000   1.0000   1.0000   1.0000   1.0000   1.0000   1.0000   1.0000
     1.0000   1.0000   1.0000   1.0000   1.0000   1.0000   1.0000   1.0000
     1.0000   1.0000   1.0000   1.0000   1.0000   1.0000   1.0000   1.0000
     1.0000   1.0000   1.0000   1.0000   1.0000   1.0000   1.0000   1.0000
     1.0000   1.0000   1.0000   1.0000   1.0000   1.0000   1.0000   1.0000
     1.0000   1.0000   1.0000   1.0000   1.0000   1.0000   1.0000   1.0000
     1.0000   1.0000   1.0000   1.0000   1.0000   1.0000   1.0000   1.0000
     1.0000   1.0000   1.0000   1.0000   1.0000   1.0000   1.0000   1.0000

          k =-0.1745 0.0000 0.2002 ( 67360 PWs)   bands (ev):

   -13.6238 -13.5828 -13.4257 -13.4019 -13.0210 -12.9863 -12.9482 -12.9365
   -12.9183 -12.8988 -12.8388 -12.8351 -12.7687 -12.7608 -12.7283 -12.7120
    -4.0814  -4.0674  -4.0043  -3.9903  -2.7438  -2.7380  -2.5178  -2.4463
    -2.3335  -2.3011  -2.2941  -2.2331  -2.1848  -2.0822  -2.0533  -2.0270
    -1.6938  -1.6576  -1.5263  -1.4604  -1.3991  -1.2657  -1.2016  -1.1639
    -1.0981  -1.0107  -0.9296  -0.8717  -0.8610  -0.7932  -0.7101  -0.6447
    -0.5923  -0.5845  -0.5449  -0.4387  -0.3586  -0.3423  -0.2970  -0.2958
    -0.2106  -0.1787  -0.1068  -0.0864  -0.0622  -0.0424   0.0596   0.0849

     occupation numbers 
     1.0000   1.0000   1.0000   1.0000   1.0000   1.0000   1.0000   1.0000
     1.0000   1.0000   1.0000   1.0000   1.0000   1.0000   1.0000   1.0000
     1.0000   1.0000   1.0000   1.0000   1.0000   1.0000   1.0000   1.0000
     1.0000   1.0000   1.0000   1.0000   1.0000   1.0000   1.0000   1.0000
     1.0000   1.0000   1.0000   1.0000   1.0000   1.0000   1.0000   1.0000
     1.0000   1.0000   1.0000   1.0000   1.0000   1.0000   1.0000   1.0000
     1.0000   1.0000   1.0000   1.0000   1.0000   1.0000   1.0000   1.0000
     1.0000   1.0000   1.0000   1.0000   1.0000   1.0000   1.0000   1.0000

          k =-0.1802 0.0000 0.1001 ( 67351 PWs)   bands (ev):

   -13.6446 -13.5400 -13.4590 -13.3923 -13.0165 -12.9934 -12.9523 -12.9291
   -12.9170 -12.8974 -12.8410 -12.8326 -12.7704 -12.7602 -12.7283 -12.7129
    -4.0798  -4.0664  -4.0008  -3.9981  -2.7599  -2.7181  -2.5134  -2.4955
    -2.3098  -2.2943  -2.2568  -2.2478  -2.2120  -2.0837  -2.0480  -1.9834
    -1.6957  -1.6303  -1.5163  -1.4595  -1.4105  -1.2672  -1.2254  -1.1631
    -1.0969  -1.0916  -0.9578  -0.9308  -0.8238  -0.7607  -0.7015  -0.6479
    -0.5916  -0.5247  -0.4965  -0.4957  -0.3565  -0.3229  -0.3187  -0.2972
    -0.2347  -0.1449  -0.1305  -0.0679  -0.0542  -0.0427   0.0644   0.0821

     occupation numbers 
     1.0000   1.0000   1.0000   1.0000   1.0000   1.0000   1.0000   1.0000
     1.0000   1.0000   1.0000   1.0000   1.0000   1.0000   1.0000   1.0000
     1.0000   1.0000   1.0000   1.0000   1.0000   1.0000   1.0000   1.0000
     1.0000   1.0000   1.0000   1.0000   1.0000   1.0000   1.0000   1.0000
     1.0000   1.0000   1.0000   1.0000   1.0000   1.0000   1.0000   1.0000
     1.0000   1.0000   1.0000   1.0000   1.0000   1.0000   1.0000   1.0000
     1.0000   1.0000   1.0000   1.0000   1.0000   1.0000   1.0000   1.0000
     1.0000   1.0000   1.0000   1.0000   1.0000   1.0000   1.0000   1.0000

          k =-0.3720 0.0000 0.0000 ( 67363 PWs)   bands (ev):

   -13.5715 -13.4811 -13.4666 -13.4629 -13.0554 -13.0060 -12.9638 -12.9542
   -12.9505 -12.8950 -12.8197 -12.8049 -12.7581 -12.7545 -12.7327 -12.7301
    -4.0196  -3.9884  -3.9557  -3.9468  -2.6883  -2.6486  -2.5637  -2.4762
    -2.3683  -2.3338  -2.2375  -2.1427  -2.1294  -2.0600  -2.0573  -1.9895
    -1.7554  -1.7431  -1.5567  -1.4919  -1.3218  -1.2636  -1.1675  -1.1460
    -1.1161  -1.0570  -1.0200  -0.9412  -0.8918  -0.8299  -0.6785  -0.6267
    -0.6157  -0.5527  -0.5032  -0.4632  -0.4529  -0.4155  -0.3705  -0.3002
    -0.2693  -0.2445  -0.1900  -0.1228  -0.0509  -0.0334   0.0237   0.0431

     occupation numbers 
     1.0000   1.0000   1.0000   1.0000   1.0000   1.0000   1.0000   1.0000
     1.0000   1.0000   1.0000   1.0000   1.0000   1.0000   1.0000   1.0000
     1.0000   1.0000   1.0000   1.0000   1.0000   1.0000   1.0000   1.0000
     1.0000   1.0000   1.0000   1.0000   1.0000   1.0000   1.0000   1.0000
     1.0000   1.0000   1.0000   1.0000   1.0000   1.0000   1.0000   1.0000
     1.0000   1.0000   1.0000   1.0000   1.0000   1.0000   1.0000   1.0000
     1.0000   1.0000   1.0000   1.0000   1.0000   1.0000   1.0000   1.0000
     1.0000   1.0000   1.0000   1.0000   1.0000   1.0000   1.0000   1.0000

          k =-0.3778 0.0000-0.1001 ( 67377 PWs)   bands (ev):

   -13.5637 -13.5037 -13.4622 -13.4539 -13.0407 -13.0167 -12.9654 -12.9542
   -12.9498 -12.8964 -12.8214 -12.8060 -12.7589 -12.7502 -12.7372 -12.7262
    -4.0236  -3.9813  -3.9570  -3.9483  -2.6859  -2.6544  -2.5376  -2.4914
    -2.3740  -2.3130  -2.2588  -2.1288  -2.1192  -2.0867  -2.0512  -2.0202
    -1.7817  -1.7192  -1.5483  -1.4390  -1.3167  -1.3109  -1.1781  -1.1719
    -1.0760  -1.0380  -0.9848  -0.9438  -0.8789  -0.7978  -0.7397  -0.6757
    -0.6664  -0.5381  -0.4855  -0.4687  -0.4414  -0.4188  -0.3308  -0.3038
    -0.2992  -0.2160  -0.2037  -0.1109  -0.0645  -0.0196   0.0136   0.0567

     occupation numbers 
     1.0000   1.0000   1.0000   1.0000   1.0000   1.0000   1.0000   1.0000
     1.0000   1.0000   1.0000   1.0000   1.0000   1.0000   1.0000   1.0000
     1.0000   1.0000   1.0000   1.0000   1.0000   1.0000   1.0000   1.0000
     1.0000   1.0000   1.0000   1.0000   1.0000   1.0000   1.0000   1.0000
     1.0000   1.0000   1.0000   1.0000   1.0000   1.0000   1.0000   1.0000
     1.0000   1.0000   1.0000   1.0000   1.0000   1.0000   1.0000   1.0000
     1.0000   1.0000   1.0000   1.0000   1.0000   1.0000   1.0000   1.0000
     1.0000   1.0000   1.0000   1.0000   1.0000   1.0000   1.0000   1.0000

          k =-0.3835 0.0000-0.2002 ( 67382 PWs)   bands (ev):

   -13.5456 -13.5301 -13.4591 -13.4505 -13.0326 -13.0207 -12.9655 -12.9520
   -12.9420 -12.9076 -12.8226 -12.8121 -12.7571 -12.7451 -12.7407 -12.7238
    -4.0206  -3.9834  -3.9645  -3.9415  -2.6745  -2.6604  -2.5145  -2.4977
    -2.3891  -2.3137  -2.2456  -2.1299  -2.1123  -2.1045  -2.0688  -2.0415
    -1.7814  -1.6753  -1.5505  -1.4169  -1.4057  -1.3541  -1.1782  -1.1470
    -1.0297  -1.0064  -0.9532  -0.8634  -0.8310  -0.8244  -0.7405  -0.7238
    -0.7222  -0.6413  -0.4671  -0.4615  -0.3943  -0.3789  -0.3697  -0.3253
    -0.2878  -0.2229  -0.1494  -0.1370  -0.0979  -0.0147   0.0197   0.0651

     occupation numbers 
     1.0000   1.0000   1.0000   1.0000   1.0000   1.0000   1.0000   1.0000
     1.0000   1.0000   1.0000   1.0000   1.0000   1.0000   1.0000   1.0000
     1.0000   1.0000   1.0000   1.0000   1.0000   1.0000   1.0000   1.0000
     1.0000   1.0000   1.0000   1.0000   1.0000   1.0000   1.0000   1.0000
     1.0000   1.0000   1.0000   1.0000   1.0000   1.0000   1.0000   1.0000
     1.0000   1.0000   1.0000   1.0000   1.0000   1.0000   1.0000   1.0000
     1.0000   1.0000   1.0000   1.0000   1.0000   1.0000   1.0000   1.0000
     1.0000   1.0000   1.0000   1.0000   1.0000   1.0000   1.0000   1.0000

          k =-0.3605 0.0000 0.2002 ( 67412 PWs)   bands (ev):

   -13.5531 -13.5203 -13.4574 -13.4541 -13.0492 -13.0046 -12.9645 -12.9537
   -12.9273 -12.9209 -12.8184 -12.8177 -12.7553 -12.7489 -12.7369 -12.7247
    -4.0117  -3.9958  -3.9647  -3.9382  -2.6698  -2.6587  -2.5443  -2.4653
    -2.3945  -2.3342  -2.2066  -2.1551  -2.1410  -2.0821  -2.0718  -2.0237
    -1.7635  -1.6554  -1.5628  -1.5086  -1.3877  -1.3560  -1.1684  -1.1046
    -1.0566  -1.0409  -0.9318  -0.8390  -0.8183  -0.7921  -0.7734  -0.7246
    -0.6816  -0.6328  -0.4907  -0.4851  -0.4167  -0.3862  -0.3486  -0.3284
    -0.2411  -0.2099  -0.1935  -0.1235  -0.1198  -0.0211   0.0303   0.0591

     occupation numbers 
     1.0000   1.0000   1.0000   1.0000   1.0000   1.0000   1.0000   1.0000
     1.0000   1.0000   1.0000   1.0000   1.0000   1.0000   1.0000   1.0000
     1.0000   1.0000   1.0000   1.0000   1.0000   1.0000   1.0000   1.0000
     1.0000   1.0000   1.0000   1.0000   1.0000   1.0000   1.0000   1.0000
     1.0000   1.0000   1.0000   1.0000   1.0000   1.0000   1.0000   1.0000
     1.0000   1.0000   1.0000   1.0000   1.0000   1.0000   1.0000   1.0000
     1.0000   1.0000   1.0000   1.0000   1.0000   1.0000   1.0000   1.0000
     1.0000   1.0000   1.0000   1.0000   1.0000   1.0000   1.0000   1.0000

          k =-0.3662 0.0000 0.1001 ( 67375 PWs)   bands (ev):

   -13.5677 -13.4932 -13.4624 -13.4596 -13.0587 -13.0007 -12.9570 -12.9556
   -12.9475 -12.9032 -12.8197 -12.8106 -12.7551 -12.7542 -12.7334 -12.7282
    -4.0095  -3.9997  -3.9614  -3.9399  -2.6814  -2.6480  -2.5655  -2.4639
    -2.3682  -2.3582  -2.1992  -2.1615  -2.1457  -2.0728  -2.0490  -1.9988
    -1.7488  -1.7011  -1.5550  -1.5430  -1.3611  -1.3033  -1.1611  -1.1031
    -1.0944  -1.0504  -1.0097  -0.9004  -0.8486  -0.8214  -0.7237  -0.6372
    -0.6046  -0.5570  -0.5277  -0.5045  -0.4474  -0.4161  -0.3317  -0.3199
    -0.2583  -0.2168  -0.1936  -0.1252  -0.0991  -0.0232   0.0359   0.0418

     occupation numbers 
     1.0000   1.0000   1.0000   1.0000   1.0000   1.0000   1.0000   1.0000
     1.0000   1.0000   1.0000   1.0000   1.0000   1.0000   1.0000   1.0000
     1.0000   1.0000   1.0000   1.0000   1.0000   1.0000   1.0000   1.0000
     1.0000   1.0000   1.0000   1.0000   1.0000   1.0000   1.0000   1.0000
     1.0000   1.0000   1.0000   1.0000   1.0000   1.0000   1.0000   1.0000
     1.0000   1.0000   1.0000   1.0000   1.0000   1.0000   1.0000   1.0000
     1.0000   1.0000   1.0000   1.0000   1.0000   1.0000   1.0000   1.0000
     1.0000   1.0000   1.0000   1.0000   1.0000   1.0000   1.0000   1.0000

          k =-0.0000-0.2000 0.0000 ( 67333 PWs)   bands (ev):

   -13.6526 -13.5123 -13.4886 -13.3829 -12.9976 -12.9913 -12.9364 -12.9117
   -12.9008 -12.8796 -12.8730 -12.8550 -12.8009 -12.7831 -12.7151 -12.7059
    -4.1250  -4.0729  -4.0591  -4.0301  -2.7322  -2.6845  -2.5527  -2.4262
    -2.3988  -2.3597  -2.3240  -2.2619  -2.2169  -2.0262  -2.0037  -1.9140
    -1.6588  -1.6563  -1.4747  -1.4313  -1.3518  -1.3192  -1.2537  -1.2180
    -1.0613  -1.0461  -0.9648  -0.9141  -0.9039  -0.7038  -0.6916  -0.6665
    -0.5822  -0.4791  -0.4746  -0.4288  -0.3701  -0.3512  -0.3319  -0.2413
    -0.1768  -0.1226  -0.0947  -0.0768  -0.0183   0.0367   0.0370   0.0462

     occupation numbers 
     1.0000   1.0000   1.0000   1.0000   1.0000   1.0000   1.0000   1.0000
     1.0000   1.0000   1.0000   1.0000   1.0000   1.0000   1.0000   1.0000
     1.0000   1.0000   1.0000   1.0000   1.0000   1.0000   1.0000   1.0000
     1.0000   1.0000   1.0000   1.0000   1.0000   1.0000   1.0000   1.0000
     1.0000   1.0000   1.0000   1.0000   1.0000   1.0000   1.0000   1.0000
     1.0000   1.0000   1.0000   1.0000   1.0000   1.0000   1.0000   1.0000
     1.0000   1.0000   1.0000   1.0000   1.0000   1.0000   1.0000   1.0000
     1.0000   1.0000   1.0000   1.0000   1.0000   1.0000   1.0000   1.0000

          k =-0.0058-0.2000-0.1001 ( 67321 PWs)   bands (ev):

   -13.6450 -13.5475 -13.4563 -13.3868 -12.9985 -12.9915 -12.9343 -12.9153
   -12.8974 -12.8811 -12.8718 -12.8573 -12.7989 -12.7848 -12.7139 -12.7066
    -4.1221  -4.0849  -4.0484  -4.0298  -2.7261  -2.6878  -2.5439  -2.4354
    -2.4067  -2.3727  -2.3346  -2.2397  -2.1942  -2.0444  -1.9943  -1.9400
    -1.7148  -1.6409  -1.4612  -1.4247  -1.3485  -1.3062  -1.2477  -1.1728
    -1.0788  -1.0278  -0.9747  -0.9202  -0.8686  -0.7489  -0.6919  -0.6184
    -0.5854  -0.5362  -0.4514  -0.4237  -0.3939  -0.3415  -0.3189  -0.2418
    -0.1717  -0.1268  -0.1007  -0.0789  -0.0233   0.0299   0.0323   0.0470

     occupation numbers 
     1.0000   1.0000   1.0000   1.0000   1.0000   1.0000   1.0000   1.0000
     1.0000   1.0000   1.0000   1.0000   1.0000   1.0000   1.0000   1.0000
     1.0000   1.0000   1.0000   1.0000   1.0000   1.0000   1.0000   1.0000
     1.0000   1.0000   1.0000   1.0000   1.0000   1.0000   1.0000   1.0000
     1.0000   1.0000   1.0000   1.0000   1.0000   1.0000   1.0000   1.0000
     1.0000   1.0000   1.0000   1.0000   1.0000   1.0000   1.0000   1.0000
     1.0000   1.0000   1.0000   1.0000   1.0000   1.0000   1.0000   1.0000
     1.0000   1.0000   1.0000   1.0000   1.0000   1.0000   1.0000   1.0000

          k =-0.0115-0.2000-0.2002 ( 67303 PWs)   bands (ev):

   -13.6231 -13.5892 -13.4226 -13.3994 -12.9976 -12.9941 -12.9289 -12.9221
   -12.8911 -12.8852 -12.8682 -12.8626 -12.7942 -12.7890 -12.7112 -12.7084
    -4.1138  -4.1008  -4.0369  -4.0310  -2.7116  -2.6972  -2.5158  -2.4705
    -2.4144  -2.4046  -2.3000  -2.2611  -2.1240  -2.0638  -1.9989  -1.9936
    -1.7255  -1.6873  -1.4178  -1.3891  -1.3550  -1.3505  -1.1632  -1.1394
    -1.1121  -1.0644  -0.9114  -0.8748  -0.8489  -0.8033  -0.6735  -0.6487
    -0.5644  -0.5281  -0.5114  -0.4853  -0.3315  -0.3191  -0.3061  -0.2479
    -0.1761  -0.1442  -0.1073  -0.0918  -0.0116   0.0126   0.0314   0.0413

     occupation numbers 
     1.0000   1.0000   1.0000   1.0000   1.0000   1.0000   1.0000   1.0000
     1.0000   1.0000   1.0000   1.0000   1.0000   1.0000   1.0000   1.0000
     1.0000   1.0000   1.0000   1.0000   1.0000   1.0000   1.0000   1.0000
     1.0000   1.0000   1.0000   1.0000   1.0000   1.0000   1.0000   1.0000
     1.0000   1.0000   1.0000   1.0000   1.0000   1.0000   1.0000   1.0000
     1.0000   1.0000   1.0000   1.0000   1.0000   1.0000   1.0000   1.0000
     1.0000   1.0000   1.0000   1.0000   1.0000   1.0000   1.0000   1.0000
     1.0000   1.0000   1.0000   1.0000   1.0000   1.0000   1.0000   1.0000

          k =-0.1860-0.2000 0.0000 ( 67344 PWs)   bands (ev):

   -13.6243 -13.4991 -13.4760 -13.3978 -13.0067 -13.0037 -12.9705 -12.9386
   -12.9162 -12.8900 -12.8478 -12.8249 -12.7925 -12.7753 -12.7242 -12.7120
    -4.0926  -4.0400  -4.0211  -3.9808  -2.7068  -2.6693  -2.5764  -2.4407
    -2.3898  -2.3392  -2.2495  -2.2278  -2.1767  -2.0967  -1.9909  -1.9609
    -1.7123  -1.6403  -1.4682  -1.4347  -1.3946  -1.3290  -1.2544  -1.1612
    -1.1036  -1.0402  -0.9666  -0.9232  -0.8428  -0.7320  -0.7095  -0.6760
    -0.6115  -0.5192  -0.4764  -0.4384  -0.4123  -0.3480  -0.3356  -0.2740
    -0.2233  -0.1926  -0.1057  -0.0898  -0.0678  -0.0165   0.0410   0.0670

     occupation numbers 
     1.0000   1.0000   1.0000   1.0000   1.0000   1.0000   1.0000   1.0000
     1.0000   1.0000   1.0000   1.0000   1.0000   1.0000   1.0000   1.0000
     1.0000   1.0000   1.0000   1.0000   1.0000   1.0000   1.0000   1.0000
     1.0000   1.0000   1.0000   1.0000   1.0000   1.0000   1.0000   1.0000
     1.0000   1.0000   1.0000   1.0000   1.0000   1.0000   1.0000   1.0000
     1.0000   1.0000   1.0000   1.0000   1.0000   1.0000   1.0000   1.0000
     1.0000   1.0000   1.0000   1.0000   1.0000   1.0000   1.0000   1.0000
     1.0000   1.0000   1.0000   1.0000   1.0000   1.0000   1.0000   1.0000

          k =-0.1918-0.2000-0.1001 ( 67368 PWs)   bands (ev):

   -13.6158 -13.5329 -13.4468 -13.4012 -13.0086 -12.9955 -12.9726 -12.9372
   -12.9275 -12.8871 -12.8441 -12.8257 -12.7924 -12.7771 -12.7226 -12.7124
    -4.0920  -4.0445  -4.0166  -3.9800  -2.7008  -2.6742  -2.5815  -2.4225
    -2.3827  -2.3345  -2.3048  -2.2335  -2.1401  -2.0888  -1.9998  -1.9710
    -1.7357  -1.6467  -1.4609  -1.4269  -1.3624  -1.3243  -1.2559  -1.1917
    -1.0641  -1.0113  -0.9474  -0.9287  -0.8628  -0.7799  -0.7034  -0.6858
    -0.6418  -0.5141  -0.4527  -0.4460  -0.3816  -0.3450  -0.3244  -0.3092
    -0.2010  -0.1894  -0.1217  -0.0871  -0.0682  -0.0235   0.0468   0.0627

     occupation numbers 
     1.0000   1.0000   1.0000   1.0000   1.0000   1.0000   1.0000   1.0000
     1.0000   1.0000   1.0000   1.0000   1.0000   1.0000   1.0000   1.0000
     1.0000   1.0000   1.0000   1.0000   1.0000   1.0000   1.0000   1.0000
     1.0000   1.0000   1.0000   1.0000   1.0000   1.0000   1.0000   1.0000
     1.0000   1.0000   1.0000   1.0000   1.0000   1.0000   1.0000   1.0000
     1.0000   1.0000   1.0000   1.0000   1.0000   1.0000   1.0000   1.0000
     1.0000   1.0000   1.0000   1.0000   1.0000   1.0000   1.0000   1.0000
     1.0000   1.0000   1.0000   1.0000   1.0000   1.0000   1.0000   1.0000

          k =-0.1975-0.2000-0.2002 ( 67359 PWs)   bands (ev):

   -13.5943 -13.5697 -13.4219 -13.4101 -13.0118 -12.9917 -12.9700 -12.9433
   -12.9232 -12.8879 -12.8433 -12.8309 -12.7894 -12.7771 -12.7239 -12.7109
    -4.0914  -4.0465  -4.0173  -3.9760  -2.6928  -2.6858  -2.5677  -2.3987
    -2.3755  -2.3618  -2.3183  -2.2388  -2.1030  -2.0962  -2.0505  -1.9766
    -1.7506  -1.6706  -1.4727  -1.4195  -1.3403  -1.2667  -1.2252  -1.2218
    -1.0596  -0.9749  -0.9497  -0.9105  -0.8309  -0.8108  -0.7189  -0.6914
    -0.6355  -0.5205  -0.5061  -0.4413  -0.4065  -0.3568  -0.3103  -0.2523
    -0.1998  -0.1805  -0.1368  -0.0818  -0.0727  -0.0557   0.0526   0.0591

     occupation numbers 
     1.0000   1.0000   1.0000   1.0000   1.0000   1.0000   1.0000   1.0000
     1.0000   1.0000   1.0000   1.0000   1.0000   1.0000   1.0000   1.0000
     1.0000   1.0000   1.0000   1.0000   1.0000   1.0000   1.0000   1.0000
     1.0000   1.0000   1.0000   1.0000   1.0000   1.0000   1.0000   1.0000
     1.0000   1.0000   1.0000   1.0000   1.0000   1.0000   1.0000   1.0000
     1.0000   1.0000   1.0000   1.0000   1.0000   1.0000   1.0000   1.0000
     1.0000   1.0000   1.0000   1.0000   1.0000   1.0000   1.0000   1.0000
     1.0000   1.0000   1.0000   1.0000   1.0000   1.0000   1.0000   1.0000

          k =-0.1745-0.2000 0.2002 ( 67337 PWs)   bands (ev):

   -13.5999 -13.5621 -13.4281 -13.4058 -13.0146 -12.9945 -12.9674 -12.9440
   -12.9110 -12.8935 -12.8432 -12.8366 -12.7870 -12.7758 -12.7260 -12.7099
    -4.0917  -4.0435  -4.0215  -3.9745  -2.6986  -2.6829  -2.5534  -2.4262
    -2.3767  -2.3544  -2.2898  -2.2281  -2.1447  -2.1025  -2.0179  -2.0014
    -1.7309  -1.6897  -1.4911  -1.4259  -1.3096  -1.2826  -1.2097  -1.1806
    -1.0908  -1.0281  -0.9572  -0.8911  -0.8336  -0.7359  -0.7155  -0.6536
    -0.5995  -0.5882  -0.5291  -0.4648  -0.4301  -0.3399  -0.3056  -0.2550
    -0.1985  -0.1543  -0.1306  -0.1010  -0.0807  -0.0603   0.0505   0.0629

     occupation numbers 
     1.0000   1.0000   1.0000   1.0000   1.0000   1.0000   1.0000   1.0000
     1.0000   1.0000   1.0000   1.0000   1.0000   1.0000   1.0000   1.0000
     1.0000   1.0000   1.0000   1.0000   1.0000   1.0000   1.0000   1.0000
     1.0000   1.0000   1.0000   1.0000   1.0000   1.0000   1.0000   1.0000
     1.0000   1.0000   1.0000   1.0000   1.0000   1.0000   1.0000   1.0000
     1.0000   1.0000   1.0000   1.0000   1.0000   1.0000   1.0000   1.0000
     1.0000   1.0000   1.0000   1.0000   1.0000   1.0000   1.0000   1.0000
     1.0000   1.0000   1.0000   1.0000   1.0000   1.0000   1.0000   1.0000

          k =-0.1802-0.2000 0.1001 ( 67328 PWs)   bands (ev):

   -13.6188 -13.5242 -13.4547 -13.3990 -13.0136 -12.9994 -12.9678 -12.9410
   -12.9047 -12.8972 -12.8476 -12.8313 -12.7892 -12.7742 -12.7262 -12.7105
    -4.0925  -4.0378  -4.0258  -3.9771  -2.7068  -2.6731  -2.5605  -2.4434
    -2.3856  -2.3430  -2.2503  -2.2143  -2.1866  -2.1055  -2.0129  -1.9691
    -1.7007  -1.6804  -1.4945  -1.4321  -1.3606  -1.2917  -1.2112  -1.1735
    -1.1105  -1.0422  -0.9850  -0.9078  -0.8119  -0.7429  -0.6978  -0.6544
    -0.5802  -0.5333  -0.5139  -0.4765  -0.4542  -0.3490  -0.3137  -0.2450
    -0.2216  -0.1759  -0.1269  -0.0835  -0.0579  -0.0533   0.0454   0.0660

     occupation numbers 
     1.0000   1.0000   1.0000   1.0000   1.0000   1.0000   1.0000   1.0000
     1.0000   1.0000   1.0000   1.0000   1.0000   1.0000   1.0000   1.0000
     1.0000   1.0000   1.0000   1.0000   1.0000   1.0000   1.0000   1.0000
     1.0000   1.0000   1.0000   1.0000   1.0000   1.0000   1.0000   1.0000
     1.0000   1.0000   1.0000   1.0000   1.0000   1.0000   1.0000   1.0000
     1.0000   1.0000   1.0000   1.0000   1.0000   1.0000   1.0000   1.0000
     1.0000   1.0000   1.0000   1.0000   1.0000   1.0000   1.0000   1.0000
     1.0000   1.0000   1.0000   1.0000   1.0000   1.0000   1.0000   1.0000

          k =-0.3720-0.2000 0.0000 ( 67355 PWs)   bands (ev):

   -13.5513 -13.4760 -13.4551 -13.4512 -13.0506 -13.0173 -12.9743 -12.9648
   -12.9464 -12.8991 -12.8202 -12.8100 -12.7769 -12.7555 -12.7434 -12.7276
    -4.0257  -4.0047  -3.9335  -3.9128  -2.6380  -2.6339  -2.5921  -2.4689
    -2.4076  -2.3132  -2.2062  -2.1910  -2.1359  -2.0588  -2.0166  -1.9660
    -1.7701  -1.7277  -1.5532  -1.4462  -1.3616  -1.2679  -1.2509  -1.2039
    -1.0657  -1.0270  -0.9807  -0.9357  -0.8663  -0.7864  -0.7266  -0.6724
    -0.5820  -0.5477  -0.5340  -0.5098  -0.4555  -0.3857  -0.3686  -0.2962
    -0.2911  -0.2168  -0.1432  -0.1411  -0.0603  -0.0302  -0.0096   0.0208

     occupation numbers 
     1.0000   1.0000   1.0000   1.0000   1.0000   1.0000   1.0000   1.0000
     1.0000   1.0000   1.0000   1.0000   1.0000   1.0000   1.0000   1.0000
     1.0000   1.0000   1.0000   1.0000   1.0000   1.0000   1.0000   1.0000
     1.0000   1.0000   1.0000   1.0000   1.0000   1.0000   1.0000   1.0000
     1.0000   1.0000   1.0000   1.0000   1.0000   1.0000   1.0000   1.0000
     1.0000   1.0000   1.0000   1.0000   1.0000   1.0000   1.0000   1.0000
     1.0000   1.0000   1.0000   1.0000   1.0000   1.0000   1.0000   1.0000
     1.0000   1.0000   1.0000   1.0000   1.0000   1.0000   1.0000   1.0000

          k =-0.3778-0.2000-0.1001 ( 67407 PWs)   bands (ev):

   -13.5441 -13.4924 -13.4534 -13.4450 -13.0394 -13.0229 -12.9775 -12.9683
   -12.9420 -12.9005 -12.8214 -12.8109 -12.7770 -12.7558 -12.7421 -12.7272
    -4.0286  -4.0008  -3.9320  -3.9150  -2.6408  -2.6359  -2.5742  -2.4823
    -2.3914  -2.3330  -2.2292  -2.1591  -2.1266  -2.0490  -2.0169  -2.0020
    -1.7930  -1.7100  -1.5466  -1.4048  -1.3658  -1.2864  -1.2590  -1.1990
    -1.0694  -1.0244  -0.9660  -0.9317  -0.8547  -0.8037  -0.7600  -0.6860
    -0.5877  -0.5677  -0.5373  -0.4894  -0.4358  -0.3919  -0.3286  -0.3049
    -0.2680  -0.2283  -0.1620  -0.1332  -0.0795  -0.0260  -0.0016   0.0225

     occupation numbers 
     1.0000   1.0000   1.0000   1.0000   1.0000   1.0000   1.0000   1.0000
     1.0000   1.0000   1.0000   1.0000   1.0000   1.0000   1.0000   1.0000
     1.0000   1.0000   1.0000   1.0000   1.0000   1.0000   1.0000   1.0000
     1.0000   1.0000   1.0000   1.0000   1.0000   1.0000   1.0000   1.0000
     1.0000   1.0000   1.0000   1.0000   1.0000   1.0000   1.0000   1.0000
     1.0000   1.0000   1.0000   1.0000   1.0000   1.0000   1.0000   1.0000
     1.0000   1.0000   1.0000   1.0000   1.0000   1.0000   1.0000   1.0000
     1.0000   1.0000   1.0000   1.0000   1.0000   1.0000   1.0000   1.0000

          k =-0.3835-0.2000-0.2002 ( 67389 PWs)   bands (ev):

   -13.5281 -13.5140 -13.4523 -13.4421 -13.0319 -13.0222 -12.9843 -12.9729
   -12.9279 -12.9064 -12.8252 -12.8162 -12.7719 -12.7551 -12.7430 -12.7264
    -4.0294  -3.9971  -3.9384  -3.9114  -2.6436  -2.6326  -2.5584  -2.4846
    -2.3787  -2.3641  -2.2235  -2.1411  -2.1088  -2.0835  -2.0328  -2.0076
    -1.7947  -1.6939  -1.5405  -1.4228  -1.3681  -1.3174  -1.2513  -1.1571
    -1.0910  -1.0166  -0.9759  -0.8905  -0.8104  -0.7970  -0.7553  -0.7030
    -0.6587  -0.5978  -0.5441  -0.4826  -0.4005  -0.3920  -0.3254  -0.2705
    -0.2497  -0.2227  -0.1810  -0.1599  -0.0896  -0.0312   0.0029   0.0275

     occupation numbers 
     1.0000   1.0000   1.0000   1.0000   1.0000   1.0000   1.0000   1.0000
     1.0000   1.0000   1.0000   1.0000   1.0000   1.0000   1.0000   1.0000
     1.0000   1.0000   1.0000   1.0000   1.0000   1.0000   1.0000   1.0000
     1.0000   1.0000   1.0000   1.0000   1.0000   1.0000   1.0000   1.0000
     1.0000   1.0000   1.0000   1.0000   1.0000   1.0000   1.0000   1.0000
     1.0000   1.0000   1.0000   1.0000   1.0000   1.0000   1.0000   1.0000
     1.0000   1.0000   1.0000   1.0000   1.0000   1.0000   1.0000   1.0000
     1.0000   1.0000   1.0000   1.0000   1.0000   1.0000   1.0000   1.0000

          k =-0.3605-0.2000 0.2002 ( 67384 PWs)   bands (ev):

   -13.5351 -13.5044 -13.4538 -13.4429 -13.0435 -13.0096 -12.9872 -12.9725
   -12.9203 -12.9113 -12.8258 -12.8187 -12.7691 -12.7543 -12.7450 -12.7263
    -4.0275  -3.9980  -3.9425  -3.9082  -2.6427  -2.6287  -2.5721  -2.4543
    -2.4240  -2.3351  -2.1976  -2.1815  -2.1096  -2.0878  -2.0346  -1.9913
    -1.7758  -1.6995  -1.5462  -1.4544  -1.3813  -1.3089  -1.2424  -1.1382
    -1.1235  -1.0215  -0.9348  -0.8843  -0.8234  -0.7597  -0.7403  -0.6940
    -0.6728  -0.6110  -0.5596  -0.4857  -0.4195  -0.3738  -0.3229  -0.3040
    -0.2479  -0.1967  -0.1705  -0.1668  -0.0979  -0.0373   0.0100   0.0229

     occupation numbers 
     1.0000   1.0000   1.0000   1.0000   1.0000   1.0000   1.0000   1.0000
     1.0000   1.0000   1.0000   1.0000   1.0000   1.0000   1.0000   1.0000
     1.0000   1.0000   1.0000   1.0000   1.0000   1.0000   1.0000   1.0000
     1.0000   1.0000   1.0000   1.0000   1.0000   1.0000   1.0000   1.0000
     1.0000   1.0000   1.0000   1.0000   1.0000   1.0000   1.0000   1.0000
     1.0000   1.0000   1.0000   1.0000   1.0000   1.0000   1.0000   1.0000
     1.0000   1.0000   1.0000   1.0000   1.0000   1.0000   1.0000   1.0000
     1.0000   1.0000   1.0000   1.0000   1.0000   1.0000   1.0000   1.0000

          k =-0.3662-0.2000 0.1001 ( 67360 PWs)   bands (ev):

   -13.5480 -13.4816 -13.4590 -13.4458 -13.0519 -13.0113 -12.9790 -12.9693
   -12.9353 -12.9017 -12.8265 -12.8112 -12.7730 -12.7538 -12.7456 -12.7270
    -4.0250  -4.0031  -3.9397  -3.9087  -2.6402  -2.6286  -2.5903  -2.4539
    -2.4217  -2.3149  -2.2120  -2.1862  -2.1206  -2.0819  -2.0246  -1.9648
    -1.7551  -1.7250  -1.5518  -1.4759  -1.3786  -1.2658  -1.2500  -1.1772
    -1.0995  -1.0179  -0.9619  -0.9151  -0.8254  -0.7731  -0.7197  -0.6783
    -0.6142  -0.5930  -0.5707  -0.4644  -0.4572  -0.3844  -0.3478  -0.3020
    -0.2895  -0.1905  -0.1657  -0.1395  -0.0741  -0.0439   0.0024   0.0222

     occupation numbers 
     1.0000   1.0000   1.0000   1.0000   1.0000   1.0000   1.0000   1.0000
     1.0000   1.0000   1.0000   1.0000   1.0000   1.0000   1.0000   1.0000
     1.0000   1.0000   1.0000   1.0000   1.0000   1.0000   1.0000   1.0000
     1.0000   1.0000   1.0000   1.0000   1.0000   1.0000   1.0000   1.0000
     1.0000   1.0000   1.0000   1.0000   1.0000   1.0000   1.0000   1.0000
     1.0000   1.0000   1.0000   1.0000   1.0000   1.0000   1.0000   1.0000
     1.0000   1.0000   1.0000   1.0000   1.0000   1.0000   1.0000   1.0000
     1.0000   1.0000   1.0000   1.0000   1.0000   1.0000   1.0000   1.0000

          k =-0.0000-0.4000 0.0000 ( 67287 PWs)   bands (ev):

   -13.5819 -13.5182 -13.4561 -13.4225 -13.0143 -13.0069 -12.9323 -12.9259
   -12.8938 -12.8843 -12.8640 -12.8564 -12.8196 -12.8057 -12.7139 -12.7100
    -4.1125  -4.0828  -4.0501  -4.0441  -2.5945  -2.5788  -2.5590  -2.5272
    -2.4629  -2.4372  -2.2772  -2.2189  -2.1846  -2.0451  -1.9091  -1.8834
    -1.7013  -1.6918  -1.4837  -1.4552  -1.3574  -1.2696  -1.1972  -1.1953
    -1.0866  -1.0542  -1.0078  -0.8634  -0.8515  -0.7238  -0.7029  -0.6543
    -0.6360  -0.5679  -0.4153  -0.3728  -0.3635  -0.3364  -0.2926  -0.2138
    -0.1889  -0.1772  -0.1569  -0.1396  -0.0125  -0.0120   0.0114   0.0415

     occupation numbers 
     1.0000   1.0000   1.0000   1.0000   1.0000   1.0000   1.0000   1.0000
     1.0000   1.0000   1.0000   1.0000   1.0000   1.0000   1.0000   1.0000
     1.0000   1.0000   1.0000   1.0000   1.0000   1.0000   1.0000   1.0000
     1.0000   1.0000   1.0000   1.0000   1.0000   1.0000   1.0000   1.0000
     1.0000   1.0000   1.0000   1.0000   1.0000   1.0000   1.0000   1.0000
     1.0000   1.0000   1.0000   1.0000   1.0000   1.0000   1.0000   1.0000
     1.0000   1.0000   1.0000   1.0000   1.0000   1.0000   1.0000   1.0000
     1.0000   1.0000   1.0000   1.0000   1.0000   1.0000   1.0000   1.0000

          k =-0.0058-0.4000-0.1001 ( 67291 PWs)   bands (ev):

   -13.5769 -13.5262 -13.4518 -13.4250 -13.0124 -13.0047 -12.9323 -12.9268
   -12.8919 -12.8830 -12.8676 -12.8608 -12.8167 -12.8061 -12.7135 -12.7103
    -4.1094  -4.0850  -4.0494  -4.0436  -2.5874  -2.5784  -2.5604  -2.5309
    -2.4673  -2.4484  -2.2597  -2.2221  -2.1819  -2.0631  -1.9188  -1.9013
    -1.7272  -1.6895  -1.4371  -1.3907  -1.3504  -1.2694  -1.2052  -1.1704
    -1.1079  -1.0700  -1.0294  -0.8920  -0.8366  -0.7334  -0.7118  -0.6741
    -0.5994  -0.5427  -0.4273  -0.3748  -0.3610  -0.3111  -0.2854  -0.2277
    -0.2148  -0.1691  -0.1647  -0.1408  -0.0192  -0.0055   0.0082   0.0390

     occupation numbers 
     1.0000   1.0000   1.0000   1.0000   1.0000   1.0000   1.0000   1.0000
     1.0000   1.0000   1.0000   1.0000   1.0000   1.0000   1.0000   1.0000
     1.0000   1.0000   1.0000   1.0000   1.0000   1.0000   1.0000   1.0000
     1.0000   1.0000   1.0000   1.0000   1.0000   1.0000   1.0000   1.0000
     1.0000   1.0000   1.0000   1.0000   1.0000   1.0000   1.0000   1.0000
     1.0000   1.0000   1.0000   1.0000   1.0000   1.0000   1.0000   1.0000
     1.0000   1.0000   1.0000   1.0000   1.0000   1.0000   1.0000   1.0000
     1.0000   1.0000   1.0000   1.0000   1.0000   1.0000   1.0000   1.0000

          k =-0.0115-0.4000-0.2002 ( 67308 PWs)   bands (ev):

   -13.5632 -13.5442 -13.4422 -13.4321 -13.0071 -13.0033 -12.9313 -12.9290
   -12.8863 -12.8803 -12.8744 -12.8695 -12.8116 -12.8079 -12.7125 -12.7112
    -4.1013  -4.0919  -4.0467  -4.0440  -2.5780  -2.5732  -2.5581  -2.5420
    -2.4742  -2.4672  -2.2321  -2.2220  -2.1680  -2.1150  -1.9308  -1.9236
    -1.7255  -1.7074  -1.3581  -1.3413  -1.3097  -1.2501  -1.2097  -1.1500
    -1.1193  -1.0916  -1.0650  -0.9782  -0.8003  -0.7620  -0.7109  -0.6972
    -0.5413  -0.5143  -0.4315  -0.3964  -0.3390  -0.3048  -0.2603  -0.2551
    -0.2154  -0.1866  -0.1728  -0.1597  -0.0166  -0.0094   0.0149   0.0293

     occupation numbers 
     1.0000   1.0000   1.0000   1.0000   1.0000   1.0000   1.0000   1.0000
     1.0000   1.0000   1.0000   1.0000   1.0000   1.0000   1.0000   1.0000
     1.0000   1.0000   1.0000   1.0000   1.0000   1.0000   1.0000   1.0000
     1.0000   1.0000   1.0000   1.0000   1.0000   1.0000   1.0000   1.0000
     1.0000   1.0000   1.0000   1.0000   1.0000   1.0000   1.0000   1.0000
     1.0000   1.0000   1.0000   1.0000   1.0000   1.0000   1.0000   1.0000
     1.0000   1.0000   1.0000   1.0000   1.0000   1.0000   1.0000   1.0000
     1.0000   1.0000   1.0000   1.0000   1.0000   1.0000   1.0000   1.0000

          k =-0.1860-0.4000 0.0000 ( 67306 PWs)   bands (ev):

   -13.5594 -13.5030 -13.4471 -13.4218 -13.0158 -13.0141 -12.9763 -12.9541
   -12.9084 -12.8942 -12.8517 -12.8307 -12.8061 -12.7948 -12.7235 -12.7182
    -4.0855  -4.0615  -3.9956  -3.9774  -2.6062  -2.6031  -2.5525  -2.4621
    -2.4400  -2.4035  -2.2747  -2.2317  -2.1263  -2.0951  -1.9095  -1.8989
    -1.7354  -1.7097  -1.4869  -1.4660  -1.3416  -1.2798  -1.2246  -1.1324
    -1.0987  -1.0321  -1.0285  -0.9498  -0.8244  -0.7824  -0.7558  -0.6799
    -0.6301  -0.5624  -0.4493  -0.3965  -0.3557  -0.3344  -0.2951  -0.2795
    -0.2330  -0.1768  -0.1418  -0.1264  -0.0618  -0.0291  -0.0091   0.0274

     occupation numbers 
     1.0000   1.0000   1.0000   1.0000   1.0000   1.0000   1.0000   1.0000
     1.0000   1.0000   1.0000   1.0000   1.0000   1.0000   1.0000   1.0000
     1.0000   1.0000   1.0000   1.0000   1.0000   1.0000   1.0000   1.0000
     1.0000   1.0000   1.0000   1.0000   1.0000   1.0000   1.0000   1.0000
     1.0000   1.0000   1.0000   1.0000   1.0000   1.0000   1.0000   1.0000
     1.0000   1.0000   1.0000   1.0000   1.0000   1.0000   1.0000   1.0000
     1.0000   1.0000   1.0000   1.0000   1.0000   1.0000   1.0000   1.0000
     1.0000   1.0000   1.0000   1.0000   1.0000   1.0000   1.0000   1.0000

          k =-0.1918-0.4000-0.1001 ( 67328 PWs)   bands (ev):

   -13.5537 -13.5116 -13.4416 -13.4255 -13.0143 -13.0124 -12.9770 -12.9545
   -12.9034 -12.8924 -12.8553 -12.8414 -12.8015 -12.7934 -12.7232 -12.7182
    -4.0819  -4.0638  -3.9934  -3.9797  -2.6078  -2.5938  -2.5632  -2.4676
    -2.4508  -2.3870  -2.2919  -2.2125  -2.1031  -2.0970  -1.9207  -1.8958
    -1.7799  -1.7505  -1.4307  -1.4234  -1.3259  -1.2699  -1.2461  -1.1494
    -1.0784  -1.0550  -1.0144  -0.9823  -0.8248  -0.7806  -0.7535  -0.6898
    -0.6089  -0.5629  -0.4556  -0.3922  -0.3581  -0.3347  -0.3058  -0.2578
    -0.2415  -0.1763  -0.1334  -0.1262  -0.0678  -0.0376  -0.0034   0.0217

     occupation numbers 
     1.0000   1.0000   1.0000   1.0000   1.0000   1.0000   1.0000   1.0000
     1.0000   1.0000   1.0000   1.0000   1.0000   1.0000   1.0000   1.0000
     1.0000   1.0000   1.0000   1.0000   1.0000   1.0000   1.0000   1.0000
     1.0000   1.0000   1.0000   1.0000   1.0000   1.0000   1.0000   1.0000
     1.0000   1.0000   1.0000   1.0000   1.0000   1.0000   1.0000   1.0000
     1.0000   1.0000   1.0000   1.0000   1.0000   1.0000   1.0000   1.0000
     1.0000   1.0000   1.0000   1.0000   1.0000   1.0000   1.0000   1.0000
     1.0000   1.0000   1.0000   1.0000   1.0000   1.0000   1.0000   1.0000

          k =-0.1975-0.4000-0.2002 ( 67334 PWs)   bands (ev):

   -13.5403 -13.5274 -13.4338 -13.4325 -13.0104 -13.0081 -12.9781 -12.9593
   -12.9025 -12.8963 -12.8509 -12.8394 -12.8046 -12.7943 -12.7238 -12.7177
    -4.0808  -4.0614  -3.9967  -3.9775  -2.6036  -2.5926  -2.5614  -2.4844
    -2.4612  -2.3839  -2.2779  -2.1967  -2.1196  -2.0929  -1.9512  -1.9180
    -1.7805  -1.7476  -1.3936  -1.3653  -1.3222  -1.2606  -1.2282  -1.1893
    -1.1007  -1.0563  -1.0213  -0.9795  -0.8370  -0.7971  -0.7573  -0.6943
    -0.5668  -0.5471  -0.4547  -0.3815  -0.3637  -0.3489  -0.3189  -0.2574
    -0.2157  -0.1820  -0.1430  -0.1251  -0.0773  -0.0569   0.0019   0.0197

     occupation numbers 
     1.0000   1.0000   1.0000   1.0000   1.0000   1.0000   1.0000   1.0000
     1.0000   1.0000   1.0000   1.0000   1.0000   1.0000   1.0000   1.0000
     1.0000   1.0000   1.0000   1.0000   1.0000   1.0000   1.0000   1.0000
     1.0000   1.0000   1.0000   1.0000   1.0000   1.0000   1.0000   1.0000
     1.0000   1.0000   1.0000   1.0000   1.0000   1.0000   1.0000   1.0000
     1.0000   1.0000   1.0000   1.0000   1.0000   1.0000   1.0000   1.0000
     1.0000   1.0000   1.0000   1.0000   1.0000   1.0000   1.0000   1.0000
     1.0000   1.0000   1.0000   1.0000   1.0000   1.0000   1.0000   1.0000

          k =-0.1745-0.4000 0.2002 ( 67311 PWs)   bands (ev):

   -13.5444 -13.5222 -13.4409 -13.4263 -13.0090 -13.0075 -12.9780 -12.9619
   -12.9059 -12.9012 -12.8399 -12.8324 -12.8093 -12.7983 -12.7244 -12.7175
    -4.0836  -4.0574  -4.0003  -3.9747  -2.6048  -2.5883  -2.5629  -2.4764
    -2.4683  -2.3905  -2.2593  -2.1973  -2.1494  -2.0947  -1.9586  -1.9351
    -1.7405  -1.7140  -1.4374  -1.3534  -1.3274  -1.2723  -1.1993  -1.1914
    -1.1259  -1.0624  -1.0274  -0.9167  -0.8676  -0.8215  -0.7435  -0.6905
    -0.5764  -0.5180  -0.4470  -0.4028  -0.3641  -0.3415  -0.3065  -0.2781
    -0.2038  -0.1880  -0.1523  -0.1220  -0.0801  -0.0617  -0.0001   0.0252

     occupation numbers 
     1.0000   1.0000   1.0000   1.0000   1.0000   1.0000   1.0000   1.0000
     1.0000   1.0000   1.0000   1.0000   1.0000   1.0000   1.0000   1.0000
     1.0000   1.0000   1.0000   1.0000   1.0000   1.0000   1.0000   1.0000
     1.0000   1.0000   1.0000   1.0000   1.0000   1.0000   1.0000   1.0000
     1.0000   1.0000   1.0000   1.0000   1.0000   1.0000   1.0000   1.0000
     1.0000   1.0000   1.0000   1.0000   1.0000   1.0000   1.0000   1.0000
     1.0000   1.0000   1.0000   1.0000   1.0000   1.0000   1.0000   1.0000
     1.0000   1.0000   1.0000   1.0000   1.0000   1.0000   1.0000   1.0000

          k =-0.1802-0.4000 0.1001 ( 67326 PWs)   bands (ev):

   -13.5560 -13.5073 -13.4470 -13.4219 -13.0139 -13.0103 -12.9766 -12.9584
   -12.9095 -12.9001 -12.8398 -12.8269 -12.8107 -12.7990 -12.7242 -12.7178
    -4.0862  -4.0579  -3.9996  -3.9746  -2.6090  -2.5930  -2.5560  -2.4726
    -2.4457  -2.4026  -2.2531  -2.2265  -2.1489  -2.0977  -1.9348  -1.9216
    -1.7074  -1.6898  -1.4924  -1.4341  -1.3433  -1.2592  -1.2079  -1.1636
    -1.1171  -1.0590  -1.0124  -0.9120  -0.8451  -0.8252  -0.7394  -0.6833
    -0.6108  -0.5355  -0.4509  -0.3870  -0.3599  -0.3374  -0.3052  -0.2843
    -0.2221  -0.1688  -0.1605  -0.1237  -0.0722  -0.0434  -0.0050   0.0296

     occupation numbers 
     1.0000   1.0000   1.0000   1.0000   1.0000   1.0000   1.0000   1.0000
     1.0000   1.0000   1.0000   1.0000   1.0000   1.0000   1.0000   1.0000
     1.0000   1.0000   1.0000   1.0000   1.0000   1.0000   1.0000   1.0000
     1.0000   1.0000   1.0000   1.0000   1.0000   1.0000   1.0000   1.0000
     1.0000   1.0000   1.0000   1.0000   1.0000   1.0000   1.0000   1.0000
     1.0000   1.0000   1.0000   1.0000   1.0000   1.0000   1.0000   1.0000
     1.0000   1.0000   1.0000   1.0000   1.0000   1.0000   1.0000   1.0000
     1.0000   1.0000   1.0000   1.0000   1.0000   1.0000   1.0000   1.0000

          k =-0.3720-0.4000 0.0000 ( 67362 PWs)   bands (ev):

   -13.5064 -13.4756 -13.4348 -13.4330 -13.0408 -13.0334 -13.0035 -12.9977
   -12.9162 -12.8993 -12.8377 -12.8272 -12.7822 -12.7712 -12.7440 -12.7378
    -4.0279  -4.0194  -3.8955  -3.8835  -2.6129  -2.6034  -2.5659  -2.5036
    -2.3617  -2.3032  -2.2751  -2.2641  -2.0615  -2.0435  -1.9229  -1.8971
    -1.7797  -1.7363  -1.5528  -1.5109  -1.3286  -1.2986  -1.2654  -1.2042
    -1.0905  -1.0146  -1.0029  -0.9494  -0.8452  -0.8153  -0.7677  -0.7245
    -0.6686  -0.6327  -0.4982  -0.4328  -0.4007  -0.3688  -0.2921  -0.2709
    -0.2303  -0.2181  -0.1515  -0.1315  -0.1122  -0.0719  -0.0365   0.0077

     occupation numbers 
     1.0000   1.0000   1.0000   1.0000   1.0000   1.0000   1.0000   1.0000
     1.0000   1.0000   1.0000   1.0000   1.0000   1.0000   1.0000   1.0000
     1.0000   1.0000   1.0000   1.0000   1.0000   1.0000   1.0000   1.0000
     1.0000   1.0000   1.0000   1.0000   1.0000   1.0000   1.0000   1.0000
     1.0000   1.0000   1.0000   1.0000   1.0000   1.0000   1.0000   1.0000
     1.0000   1.0000   1.0000   1.0000   1.0000   1.0000   1.0000   1.0000
     1.0000   1.0000   1.0000   1.0000   1.0000   1.0000   1.0000   1.0000
     1.0000   1.0000   1.0000   1.0000   1.0000   1.0000   1.0000   1.0000

          k =-0.3778-0.4000-0.1001 ( 67321 PWs)   bands (ev):

   -13.5017 -13.4786 -13.4379 -13.4327 -13.0364 -13.0323 -13.0056 -13.0007
   -12.9137 -12.9010 -12.8363 -12.8266 -12.7838 -12.7712 -12.7441 -12.7381
    -4.0273  -4.0187  -3.8940  -3.8863  -2.6115  -2.6043  -2.5634  -2.5157
    -2.3607  -2.2940  -2.2846  -2.2262  -2.0787  -2.0584  -1.9169  -1.8939
    -1.7928  -1.7357  -1.5434  -1.4926  -1.3633  -1.3387  -1.2221  -1.2035
    -1.1125  -1.0382  -0.9658  -0.9047  -0.8440  -0.8198  -0.8089  -0.7343
    -0.6664  -0.6012  -0.4967  -0.4258  -0.4036  -0.3875  -0.2910  -0.2703
    -0.2145  -0.2085  -0.1675  -0.1383  -0.1050  -0.0700  -0.0335  -0.0008

     occupation numbers 
     1.0000   1.0000   1.0000   1.0000   1.0000   1.0000   1.0000   1.0000
     1.0000   1.0000   1.0000   1.0000   1.0000   1.0000   1.0000   1.0000
     1.0000   1.0000   1.0000   1.0000   1.0000   1.0000   1.0000   1.0000
     1.0000   1.0000   1.0000   1.0000   1.0000   1.0000   1.0000   1.0000
     1.0000   1.0000   1.0000   1.0000   1.0000   1.0000   1.0000   1.0000
     1.0000   1.0000   1.0000   1.0000   1.0000   1.0000   1.0000   1.0000
     1.0000   1.0000   1.0000   1.0000   1.0000   1.0000   1.0000   1.0000
     1.0000   1.0000   1.0000   1.0000   1.0000   1.0000   1.0000   1.0000

          k =-0.3835-0.4000-0.2002 ( 67352 PWs)   bands (ev):

   -13.4926 -13.4845 -13.4415 -13.4338 -13.0295 -13.0267 -13.0116 -13.0046
   -12.9151 -12.9081 -12.8291 -12.8131 -12.7910 -12.7759 -12.7450 -12.7385
    -4.0279  -4.0162  -3.8963  -3.8857  -2.6080  -2.5954  -2.5719  -2.5335
    -2.3556  -2.3115  -2.2478  -2.1789  -2.1002  -2.0902  -1.9305  -1.8939
    -1.7940  -1.7425  -1.5226  -1.4704  -1.3839  -1.3772  -1.2171  -1.1802
    -1.1278  -1.0534  -0.9607  -0.8844  -0.8428  -0.8106  -0.7810  -0.7654
    -0.6607  -0.5835  -0.4806  -0.4331  -0.4090  -0.4048  -0.2939  -0.2646
    -0.2197  -0.2035  -0.1836  -0.1501  -0.0885  -0.0628  -0.0368  -0.0025

     occupation numbers 
     1.0000   1.0000   1.0000   1.0000   1.0000   1.0000   1.0000   1.0000
     1.0000   1.0000   1.0000   1.0000   1.0000   1.0000   1.0000   1.0000
     1.0000   1.0000   1.0000   1.0000   1.0000   1.0000   1.0000   1.0000
     1.0000   1.0000   1.0000   1.0000   1.0000   1.0000   1.0000   1.0000
     1.0000   1.0000   1.0000   1.0000   1.0000   1.0000   1.0000   1.0000
     1.0000   1.0000   1.0000   1.0000   1.0000   1.0000   1.0000   1.0000
     1.0000   1.0000   1.0000   1.0000   1.0000   1.0000   1.0000   1.0000
     1.0000   1.0000   1.0000   1.0000   1.0000   1.0000   1.0000   1.0000

          k =-0.3605-0.4000 0.2002 ( 67330 PWs)   bands (ev):

   -13.4966 -13.4793 -13.4435 -13.4327 -13.0319 -13.0228 -13.0135 -13.0031
   -12.9180 -12.9112 -12.8190 -12.8138 -12.7883 -12.7829 -12.7455 -12.7385
    -4.0287  -4.0154  -3.8985  -3.8832  -2.5992  -2.5901  -2.5888  -2.5311
    -2.3477  -2.3271  -2.2353  -2.1890  -2.0997  -2.0794  -1.9415  -1.9032
    -1.7756  -1.7477  -1.5273  -1.4850  -1.3691  -1.3561  -1.2353  -1.1812
    -1.0866  -1.0749  -0.9918  -0.8938  -0.8361  -0.7980  -0.7739  -0.7470
    -0.6573  -0.5984  -0.4817  -0.4355  -0.4214  -0.3853  -0.2934  -0.2615
    -0.2472  -0.2140  -0.1750  -0.1451  -0.0780  -0.0708  -0.0396   0.0059

     occupation numbers 
     1.0000   1.0000   1.0000   1.0000   1.0000   1.0000   1.0000   1.0000
     1.0000   1.0000   1.0000   1.0000   1.0000   1.0000   1.0000   1.0000
     1.0000   1.0000   1.0000   1.0000   1.0000   1.0000   1.0000   1.0000
     1.0000   1.0000   1.0000   1.0000   1.0000   1.0000   1.0000   1.0000
     1.0000   1.0000   1.0000   1.0000   1.0000   1.0000   1.0000   1.0000
     1.0000   1.0000   1.0000   1.0000   1.0000   1.0000   1.0000   1.0000
     1.0000   1.0000   1.0000   1.0000   1.0000   1.0000   1.0000   1.0000
     1.0000   1.0000   1.0000   1.0000   1.0000   1.0000   1.0000   1.0000

          k =-0.3662-0.4000 0.1001 ( 67342 PWs)   bands (ev):

   -13.5043 -13.4747 -13.4406 -13.4311 -13.0384 -13.0295 -13.0068 -12.9982
   -12.9213 -12.9033 -12.8332 -12.8126 -12.7884 -12.7755 -12.7449 -12.7379
    -4.0288  -4.0173  -3.8979  -3.8820  -2.6064  -2.5974  -2.5792  -2.5126
    -2.3525  -2.3220  -2.2636  -2.2324  -2.0665  -2.0554  -1.9382  -1.9039
    -1.7646  -1.7480  -1.5422  -1.5069  -1.3416  -1.3120  -1.2620  -1.1881
    -1.0778  -1.0287  -1.0199  -0.9536  -0.8306  -0.7986  -0.7537  -0.7318
    -0.6594  -0.6353  -0.4975  -0.4332  -0.4021  -0.3715  -0.2979  -0.2701
    -0.2429  -0.2190  -0.1636  -0.1376  -0.0915  -0.0725  -0.0381   0.0109

     occupation numbers 
     1.0000   1.0000   1.0000   1.0000   1.0000   1.0000   1.0000   1.0000
     1.0000   1.0000   1.0000   1.0000   1.0000   1.0000   1.0000   1.0000
     1.0000   1.0000   1.0000   1.0000   1.0000   1.0000   1.0000   1.0000
     1.0000   1.0000   1.0000   1.0000   1.0000   1.0000   1.0000   1.0000
     1.0000   1.0000   1.0000   1.0000   1.0000   1.0000   1.0000   1.0000
     1.0000   1.0000   1.0000   1.0000   1.0000   1.0000   1.0000   1.0000
     1.0000   1.0000   1.0000   1.0000   1.0000   1.0000   1.0000   1.0000
     1.0000   1.0000   1.0000   1.0000   1.0000   1.0000   1.0000   1.0000

     highest occupied level (ev):     0.0849

!    total energy              =    -501.70232754 Ry
     estimated scf accuracy    <       0.00000052 Ry

     The total energy is the sum of the following terms:
     one-electron contribution =    -127.27441865 Ry
     hartree contribution      =     109.62706994 Ry
     xc contribution           =    -102.56176361 Ry
     ewald contribution        =    -381.49321522 Ry

     convergence has been achieved in   8 iterations

     Forces acting on atoms (cartesian axes, Ry/au):

     atom    1 type  1   force =    -0.00087139    0.00082785    0.00216492
     atom    2 type  1   force =     0.00087139    0.00082785   -0.00216492
     atom    3 type  1   force =     0.00087139   -0.00082785   -0.00216492
     atom    4 type  1   force =    -0.00087139   -0.00082785    0.00216492
     atom    5 type  2   force =    -0.00063619   -0.00222506    0.00226499
     atom    6 type  2   force =     0.00063619   -0.00222506   -0.00226499
     atom    7 type  2   force =     0.00063619    0.00222506   -0.00226499
     atom    8 type  2   force =    -0.00063619    0.00222506    0.00226499
     atom    9 type  3   force =    -0.00030325    0.00636341    0.01339178
     atom   10 type  3   force =     0.00030325    0.00636341   -0.01339178
     atom   11 type  3   force =     0.00030325   -0.00636341   -0.01339178
     atom   12 type  3   force =    -0.00030325   -0.00636341    0.01339178
     atom   13 type  3   force =     0.00556628   -0.01279786    0.00172569
     atom   14 type  3   force =    -0.00556628   -0.01279786   -0.00172569
     atom   15 type  3   force =    -0.00556628    0.01279786   -0.00172569
     atom   16 type  3   force =     0.00556628    0.01279786    0.00172569
     atom   17 type  3   force =     0.01110669    0.00680113   -0.00943600
     atom   18 type  3   force =    -0.01110669    0.00680113    0.00943600
     atom   19 type  3   force =    -0.01110669   -0.00680113    0.00943600
     atom   20 type  3   force =     0.01110669   -0.00680113   -0.00943600
     atom   21 type  3   force =    -0.01360093    0.00064499   -0.00743051
     atom   22 type  3   force =     0.01360093    0.00064499    0.00743051
     atom   23 type  3   force =     0.01360093   -0.00064499    0.00743051
     atom   24 type  3   force =    -0.01360093   -0.00064499   -0.00743051
     The non-local contrib.  to forces
     atom    1 type  1   force =    -0.01739045   -0.01341820   -0.00099302
     atom    2 type  1   force =     0.01739045   -0.01341820    0.00099302
     atom    3 type  1   force =     0.01739045    0.01341820    0.00099302
     atom    4 type  1   force =    -0.01739045    0.01341820   -0.00099302
     atom    5 type  2   force =     0.00087727    0.01439261   -0.03005637
     atom    6 type  2   force =    -0.00087727    0.01439261    0.03005637
     atom    7 type  2   force =    -0.00087727   -0.01439261    0.03005637
     atom    8 type  2   force =     0.00087727   -0.01439261   -0.03005637
     atom    9 type  3   force =     0.03933161   -0.13495576   -0.13764384
     atom   10 type  3   force =    -0.03933161   -0.13495576    0.13764384
     atom   11 type  3   force =    -0.03933161    0.13495576    0.13764384
     atom   12 type  3   force =     0.03933161    0.13495576   -0.13764384
     atom   13 type  3   force =    -0.01220833    0.18754825   -0.01237529
     atom   14 type  3   force =     0.01220833    0.18754825    0.01237529
     atom   15 type  3   force =     0.01220833   -0.18754825    0.01237529
     atom   16 type  3   force =    -0.01220833   -0.18754825   -0.01237529
     atom   17 type  3   force =    -0.14104210   -0.08323939    0.03618589
     atom   18 type  3   force =     0.14104210   -0.08323939   -0.03618589
     atom   19 type  3   force =     0.14104210    0.08323939   -0.03618589
     atom   20 type  3   force =    -0.14104210    0.08323939    0.03618589
     atom   21 type  3   force =     0.11384272   -0.06274318    0.14454591
     atom   22 type  3   force =    -0.11384272   -0.06274318   -0.14454591
     atom   23 type  3   force =    -0.11384272    0.06274318   -0.14454591
     atom   24 type  3   force =     0.11384272    0.06274318    0.14454591
     The ionic contribution  to forces
     atom    1 type  1   force =    -0.02423539   -0.05007099   -0.11403160
     atom    2 type  1   force =     0.02423539   -0.05007099    0.11403160
     atom    3 type  1   force =     0.02423539    0.05007099    0.11403160
     atom    4 type  1   force =    -0.02423539    0.05007099   -0.11403160
     atom    5 type  2   force =    -0.18827817    0.26150167   -0.19527978
     atom    6 type  2   force =     0.18827817    0.26150167    0.19527978
     atom    7 type  2   force =     0.18827817   -0.26150167    0.19527978
     atom    8 type  2   force =    -0.18827817   -0.26150167   -0.19527978
     atom    9 type  3   force =    -0.15118188    2.01723636    2.20437328
     atom   10 type  3   force =     0.15118188    2.01723636   -2.20437328
     atom   11 type  3   force =     0.15118188   -2.01723636   -2.20437328
     atom   12 type  3   force =    -0.15118188   -2.01723636    2.20437328
     atom   13 type  3   force =     0.32252200   -3.04795898   -0.01908978
     atom   14 type  3   force =    -0.32252200   -3.04795898    0.01908978
     atom   15 type  3   force =    -0.32252200    3.04795898    0.01908978
     atom   16 type  3   force =     0.32252200    3.04795898   -0.01908978
     atom   17 type  3   force =     1.72511832    1.44022468   -1.10806173
     atom   18 type  3   force =    -1.72511832    1.44022468    1.10806173
     atom   19 type  3   force =    -1.72511832   -1.44022468    1.10806173
     atom   20 type  3   force =     1.72511832   -1.44022468   -1.10806173
     atom   21 type  3   force =    -1.95880577    0.42461295   -1.37177756
     atom   22 type  3   force =     1.95880577    0.42461295    1.37177756
     atom   23 type  3   force =     1.95880577   -0.42461295    1.37177756
     atom   24 type  3   force =    -1.95880577   -0.42461295   -1.37177756
     The local contribution  to forces
[...]
     atom   16 type  3   force =    -0.00017515   -0.00066408    0.00008158
     atom   17 type  3   force =    -0.00007055   -0.00037231    0.00012862
     atom   18 type  3   force =     0.00007055   -0.00037231   -0.00012862
     atom   19 type  3   force =     0.00007055    0.00037231   -0.00012862
     atom   20 type  3   force =    -0.00007055    0.00037231    0.00012862
     atom   21 type  3   force =     0.00026462   -0.00048661    0.00066378
     atom   22 type  3   force =    -0.00026462   -0.00048661   -0.00066378
     atom   23 type  3   force =    -0.00026462    0.00048661   -0.00066378
     atom   24 type  3   force =     0.00026462    0.00048661    0.00066378
     The non-local contrib.  to forces
     atom    1 type  1   force =    -0.01639343   -0.01549155   -0.00236172
     atom    2 type  1   force =     0.01639343   -0.01549155    0.00236172
     atom    3 type  1   force =     0.01639343    0.01549155    0.00236172
     atom    4 type  1   force =    -0.01639343    0.01549155   -0.00236172
     atom    5 type  2   force =     0.00189858    0.01279066   -0.02954437
     atom    6 type  2   force =    -0.00189858    0.01279066    0.02954437
     atom    7 type  2   force =    -0.00189858   -0.01279066    0.02954437
     atom    8 type  2   force =     0.00189858   -0.01279066   -0.02954437
     atom    9 type  3   force =     0.03911548   -0.14904968   -0.16638169
     atom   10 type  3   force =    -0.03911548   -0.14904968    0.16638169
     atom   11 type  3   force =    -0.03911548    0.14904968    0.16638169
     atom   12 type  3   force =     0.03911548    0.14904968   -0.16638169
     atom   13 type  3   force =    -0.02451543    0.21555184   -0.01530247
     atom   14 type  3   force =     0.02451543    0.21555184    0.01530247
     atom   15 type  3   force =     0.02451543   -0.21555184    0.01530247
     atom   16 type  3   force =    -0.02451543   -0.21555184   -0.01530247
     atom   17 type  3   force =    -0.16472429   -0.09754960    0.05630477
     atom   18 type  3   force =     0.16472429   -0.09754960   -0.05630477
     atom   19 type  3   force =     0.16472429    0.09754960   -0.05630477
     atom   20 type  3   force =    -0.16472429    0.09754960    0.05630477
     atom   21 type  3   force =     0.14377729   -0.06544478    0.16186425
     atom   22 type  3   force =    -0.14377729   -0.06544478   -0.16186425
     atom   23 type  3   force =    -0.14377729    0.06544478   -0.16186425
     atom   24 type  3   force =     0.14377729    0.06544478    0.16186425
     The ionic contribution  to forces
     atom    1 type  1   force =    -0.00963165   -0.05751027   -0.11189765
     atom    2 type  1   force =     0.00963165   -0.05751027    0.11189765
     atom    3 type  1   force =     0.00963165    0.05751027    0.11189765
     atom    4 type  1   force =    -0.00963165    0.05751027   -0.11189765
     atom    5 type  2   force =    -0.21382059    0.24999370   -0.18536997
     atom    6 type  2   force =     0.21382059    0.24999370    0.18536997
     atom    7 type  2   force =     0.21382059   -0.24999370    0.18536997
     atom    8 type  2   force =    -0.21382059   -0.24999370   -0.18536997
     atom    9 type  3   force =    -0.23122911    1.92244206    2.01799273
     atom   10 type  3   force =     0.23122911    1.92244206   -2.01799273
     atom   11 type  3   force =     0.23122911   -1.92244206   -2.01799273
     atom   12 type  3   force =    -0.23122911   -1.92244206    2.01799273
     atom   13 type  3   force =     0.18250674   -2.88275336   -0.00843747
     atom   14 type  3   force =    -0.18250674   -2.88275336    0.00843747
     atom   15 type  3   force =    -0.18250674    2.88275336    0.00843747
     atom   16 type  3   force =     0.18250674    2.88275336   -0.00843747
     atom   17 type  3   force =     1.54526770    1.34840337   -0.97150808
     atom   18 type  3   force =    -1.54526770    1.34840337    0.97150808
     atom   19 type  3   force =    -1.54526770   -1.34840337    0.97150808
     atom   20 type  3   force =     1.54526770   -1.34840337   -0.97150808
     atom   21 type  3   force =    -1.75934531    0.40192467   -1.27128173
     atom   22 type  3   force =     1.75934531    0.40192467    1.27128173
     atom   23 type  3   force =     1.75934531   -0.40192467    1.27128173
     atom   24 type  3   force =    -1.75934531   -0.40192467   -1.27128173
     The local contribution  to forces
     atom    1 type  1   force =     0.02279601    0.07072276    0.11463146
     atom    2 type  1   force =    -0.02279601    0.07072276   -0.11463146
     atom    3 type  1   force =    -0.02279601   -0.07072276   -0.11463146
     atom    4 type  1   force =     0.02279601   -0.07072276    0.11463146
     atom    5 type  2   force =     0.21204974   -0.26324241    0.21500370
     atom    6 type  2   force =    -0.21204974   -0.26324241   -0.21500370
     atom    7 type  2   force =    -0.21204974    0.26324241   -0.21500370
     atom    8 type  2   force =     0.21204974    0.26324241    0.21500370
     atom    9 type  3   force =     0.19190592   -1.77369408   -1.85216122
     atom   10 type  3   force =    -0.19190592   -1.77369408    1.85216122
     atom   11 type  3   force =    -0.19190592    1.77369408    1.85216122
     atom   12 type  3   force =     0.19190592    1.77369408   -1.85216122
     atom   13 type  3   force =    -0.15819797    2.66788268    0.02380585
     atom   14 type  3   force =     0.15819797    2.66788268   -0.02380585
     atom   15 type  3   force =     0.15819797   -2.66788268   -0.02380585
     atom   16 type  3   force =    -0.15819797   -2.66788268    0.02380585
     atom   17 type  3   force =    -1.38061243   -1.25120021    0.91532865
     atom   18 type  3   force =     1.38061243   -1.25120021   -0.91532865
     atom   19 type  3   force =     1.38061243    1.25120021   -0.91532865
     atom   20 type  3   force =    -1.38061243    1.25120021    0.91532865
     atom   21 type  3   force =     1.61581264   -0.33697033    1.11006850
     atom   22 type  3   force =    -1.61581264   -0.33697033   -1.11006850
     atom   23 type  3   force =    -1.61581264    0.33697033   -1.11006850
     atom   24 type  3   force =     1.61581264    0.33697033    1.11006850
     The core correction contribution to forces
     atom    1 type  1   force =     0.00246980    0.00233231    0.00041619
     atom    2 type  1   force =    -0.00246980    0.00233231   -0.00041619
     atom    3 type  1   force =    -0.00246980   -0.00233231   -0.00041619
     atom    4 type  1   force =     0.00246980   -0.00233231    0.00041619
     atom    5 type  2   force =     0.00000000    0.00000000    0.00000000
     atom    6 type  2   force =     0.00000000    0.00000000    0.00000000
     atom    7 type  2   force =     0.00000000    0.00000000    0.00000000
     atom    8 type  2   force =     0.00000000    0.00000000    0.00000000
     atom    9 type  3   force =     0.00000000    0.00000000    0.00000000
     atom   10 type  3   force =     0.00000000    0.00000000    0.00000000
     atom   11 type  3   force =     0.00000000    0.00000000    0.00000000
     atom   12 type  3   force =     0.00000000    0.00000000    0.00000000
     atom   13 type  3   force =     0.00000000    0.00000000    0.00000000
     atom   14 type  3   force =     0.00000000    0.00000000    0.00000000
     atom   15 type  3   force =     0.00000000    0.00000000    0.00000000
     atom   16 type  3   force =     0.00000000    0.00000000    0.00000000
     atom   17 type  3   force =     0.00000000    0.00000000    0.00000000
     atom   18 type  3   force =     0.00000000    0.00000000    0.00000000
     atom   19 type  3   force =     0.00000000    0.00000000    0.00000000
     atom   20 type  3   force =     0.00000000    0.00000000    0.00000000
     atom   21 type  3   force =     0.00000000    0.00000000    0.00000000
     atom   22 type  3   force =     0.00000000    0.00000000    0.00000000
     atom   23 type  3   force =     0.00000000    0.00000000    0.00000000
     atom   24 type  3   force =     0.00000000    0.00000000    0.00000000
     The Hubbard contrib.    to forces
     atom    1 type  1   force =     0.00000000    0.00000000    0.00000000
     atom    2 type  1   force =     0.00000000    0.00000000    0.00000000
     atom    3 type  1   force =     0.00000000    0.00000000    0.00000000
     atom    4 type  1   force =     0.00000000    0.00000000    0.00000000
     atom    5 type  2   force =     0.00000000    0.00000000    0.00000000
     atom    6 type  2   force =     0.00000000    0.00000000    0.00000000
     atom    7 type  2   force =     0.00000000    0.00000000    0.00000000
     atom    8 type  2   force =     0.00000000    0.00000000    0.00000000
     atom    9 type  3   force =     0.00000000    0.00000000    0.00000000
     atom   10 type  3   force =     0.00000000    0.00000000    0.00000000
     atom   11 type  3   force =     0.00000000    0.00000000    0.00000000
     atom   12 type  3   force =     0.00000000    0.00000000    0.00000000
     atom   13 type  3   force =     0.00000000    0.00000000    0.00000000
     atom   14 type  3   force =     0.00000000    0.00000000    0.00000000
     atom   15 type  3   force =     0.00000000    0.00000000    0.00000000
     atom   16 type  3   force =     0.00000000    0.00000000    0.00000000
     atom   17 type  3   force =     0.00000000    0.00000000    0.00000000
     atom   18 type  3   force =     0.00000000    0.00000000    0.00000000
     atom   19 type  3   force =     0.00000000    0.00000000    0.00000000
     atom   20 type  3   force =     0.00000000    0.00000000    0.00000000
     atom   21 type  3   force =     0.00000000    0.00000000    0.00000000
     atom   22 type  3   force =     0.00000000    0.00000000    0.00000000
     atom   23 type  3   force =     0.00000000    0.00000000    0.00000000
     atom   24 type  3   force =     0.00000000    0.00000000    0.00000000
     The SCF correction term to forces
     atom    1 type  1   force =     0.00000000   -0.00000006    0.00000011
     atom    2 type  1   force =    -0.00000000   -0.00000006   -0.00000011
     atom    3 type  1   force =    -0.00000000    0.00000006   -0.00000011
     atom    4 type  1   force =     0.00000000    0.00000006    0.00000011
     atom    5 type  2   force =    -0.00000004    0.00000288   -0.00000205
     atom    6 type  2   force =     0.00000004    0.00000288    0.00000205
     atom    7 type  2   force =     0.00000004   -0.00000288    0.00000205
     atom    8 type  2   force =    -0.00000004   -0.00000288   -0.00000205
     atom    9 type  3   force =    -0.00001129   -0.00002244    0.00001884
     atom   10 type  3   force =     0.00001129   -0.00002244   -0.00001884
     atom   11 type  3   force =     0.00001129    0.00002244   -0.00001884
     atom   12 type  3   force =    -0.00001129    0.00002244    0.00001884
     atom   13 type  3   force =     0.00003150   -0.00001709    0.00001568
     atom   14 type  3   force =    -0.00003150   -0.00001709   -0.00001568
     atom   15 type  3   force =    -0.00003150    0.00001709   -0.00001568
     atom   16 type  3   force =     0.00003150    0.00001709    0.00001568
     atom   17 type  3   force =    -0.00000152   -0.00002588    0.00000328
     atom   18 type  3   force =     0.00000152   -0.00002588   -0.00000328
     atom   19 type  3   force =     0.00000152    0.00002588   -0.00000328
     atom   20 type  3   force =    -0.00000152    0.00002588    0.00000328
     atom   21 type  3   force =     0.00002000    0.00000383    0.00001276
     atom   22 type  3   force =    -0.00002000    0.00000383   -0.00001276
     atom   23 type  3   force =    -0.00002000   -0.00000383   -0.00001276
     atom   24 type  3   force =     0.00002000   -0.00000383    0.00001276

     Total force =     0.003607     Total SCF correction =     0.000123


     Computing stress (Cartesian axis) and pressure

          total   stress  (Ry/bohr**3)                   (kbar)     P=        7.60
   0.00005159   0.00000000   0.00000216            7.59        0.00        0.32
   0.00000000   0.00005604   0.00000000            0.00        8.24        0.00
   0.00000216   0.00000000   0.00004731            0.32        0.00        6.96

     kinetic stress (kbar)   4565.14      0.00    -10.14
                                0.00   4611.29      0.00
                              -10.14      0.00   4568.86

     local   stress (kbar)  -6088.83     -0.00   -102.66
                               -0.00  -5331.12      0.00
                             -102.66      0.00  -5795.24

     nonloc. stress (kbar)   5724.30      0.00      1.10
                                0.00   5723.24      0.00
                                1.10      0.00   5724.22

     hartree stress (kbar)   1443.54     -0.00     27.77
                               -0.00   1206.78      0.00
                               27.77      0.00   1334.97

     exc-cor stress (kbar)  -1153.73      0.00      0.26
                                0.00  -1154.91      0.00
                                0.26      0.00  -1154.29

     corecor stress (kbar)    -20.09     -0.00     -0.02
                               -0.00    -20.10     -0.00
                               -0.02     -0.00    -19.90

     ewald   stress (kbar)  -4462.73     -0.00     84.02
                               -0.00  -5026.94     -0.00
                               84.02     -0.00  -4651.65

     hubbard stress (kbar)      0.00      0.00      0.00
                                0.00      0.00      0.00
                                0.00      0.00      0.00

     DFT-D   stress (kbar)      0.00      0.00      0.00
                                0.00      0.00      0.00
                                0.00      0.00      0.00

     XDM     stress (kbar)      0.00      0.00      0.00
                                0.00      0.00      0.00
                                0.00      0.00      0.00

     dft-nl  stress (kbar)      0.00      0.00      0.00
                                0.00      0.00      0.00
                                0.00      0.00      0.00

     TS-vdW  stress (kbar)      0.00      0.00      0.00
                                0.00      0.00      0.00
                                0.00      0.00      0.00

     MDB     stress (kbar)      0.00      0.00      0.00
                                0.00      0.00      0.00
                                0.00      0.00      0.00

     3D-RISM stress (kbar)      0.00      0.00      0.00
                                0.00      0.00      0.00
                                0.00      0.00      0.00

     Energy error            =      8.2E-05 Ry
     Gradient error          =      7.9E-04 Ry/Bohr

     bfgs converged in  10 scf cycles and   9 bfgs steps
     (criteria: energy <  1.0E-04 Ry, force <  1.0E-03 Ry/Bohr)

     End of BFGS Geometry Optimization

     Final energy             =    -501.7083753380 Ry

     File ./out/LAC.bfgs deleted, as requested
Begin final coordinates

ATOMIC_POSITIONS (crystal)
Li               0.4836927641        0.8441570483        0.1338779421
Li               0.9836927641        0.1558429517        0.3661220579
Li               0.5163072359        0.1558429517        0.8661220579
Li               0.0163072359        0.8441570483        0.6338779421
Al               0.8224331503        0.2941466310        0.6006334695
Al               0.3224331503        0.7058533690        0.8993665305
Al               0.1775668497        0.7058533690        0.3993665305
Al               0.6775668497        0.2941466310        0.1006334695
Cl               0.6821559396        0.3061483686        0.4513109536
Cl               0.1821559396        0.6938516314        0.0486890464
Cl               0.3178440604        0.6938516314        0.5486890464
Cl               0.8178440604        0.3061483686        0.9513109536
Cl               0.1317773638        0.1883007604        0.5706977707
Cl               0.6317773638        0.8116992396        0.9293022293
Cl               0.8682226362        0.8116992396        0.4293022293
Cl               0.3682226362        0.1883007604        0.0706977707
Cl               0.6803183671        0.0718863651        0.6872345811
Cl               0.1803183671        0.9281136349        0.8127654189
Cl               0.3196816329        0.9281136349        0.3127654189
Cl               0.8196816329        0.0718863651        0.1872345811
Cl               0.8138796502        0.5633115529        0.6879288781
Cl               0.3138796502        0.4366884471        0.8120711219
Cl               0.1861203498        0.4366884471        0.3120711219
Cl               0.6861203498        0.5633115529        0.1879288781
End final coordinates



     Writing all to output data dir ./out/LAC.save/ :
     XML data file, charge density, pseudopotentials, collected wavefunctions

     init_run     :    122.27s CPU    125.86s WALL (       1 calls)
     electrons    :   7758.91s CPU   8815.28s WALL (      10 calls)
     update_pot   :      5.44s CPU      6.00s WALL (       9 calls)
     forces       :     85.65s CPU     86.63s WALL (      10 calls)
     stress       :   1570.72s CPU   1582.68s WALL (      10 calls)

     Called by init_run:
     wfcinit      :    119.58s CPU    123.00s WALL (       1 calls)
     wfcinit:atom :      1.10s CPU      1.71s WALL (      39 calls)
     wfcinit:wfcr :    108.95s CPU    111.50s WALL (      39 calls)
     potinit      :      1.15s CPU      1.25s WALL (       1 calls)
     hinit0       :      1.06s CPU      1.10s WALL (       1 calls)

     Called by electrons:
     c_bands      :   6766.24s CPU   7436.48s WALL (      61 calls)
     sum_band     :    963.56s CPU    983.00s WALL (      61 calls)
     v_of_rho     :     27.46s CPU     29.07s WALL (      64 calls)
     v_h          :      1.96s CPU      2.15s WALL (      64 calls)
     v_xc         :     33.31s CPU     35.66s WALL (      84 calls)
     mix_rho      :      3.58s CPU      4.17s WALL (      61 calls)

     Called by c_bands:
     init_us_2    :     94.56s CPU     94.82s WALL (    5577 calls)
     cegterg      :   6663.14s CPU   6799.86s WALL (    2379 calls)

     Called by sum_band:
     sum_band:wei :      0.00s CPU      0.00s WALL (      61 calls)
     sum_band:loo :    959.59s CPU    978.50s WALL (      61 calls)
     sum_band:buf :     16.01s CPU     17.05s WALL (    2379 calls)
     sum_band:ini :     40.26s CPU     40.36s WALL (    2379 calls)

     Called by *egterg:
     cdiaghg      :     57.50s CPU     57.66s WALL (    8202 calls)
     cegterg:over :    450.38s CPU    450.96s WALL (    6447 calls)
     cegterg:upda :    285.09s CPU    288.07s WALL (    6447 calls)
     cegterg:last :    436.80s CPU    437.19s WALL (    5889 calls)
     h_psi        :   5251.46s CPU   5381.73s WALL (    8865 calls)
     g_psi        :     60.91s CPU     61.05s WALL (    6447 calls)

     Called by h_psi:
     h_psi:calbec :    229.76s CPU    230.18s WALL (    8865 calls)
     vloc_psi     :   4732.25s CPU   4852.31s WALL (    8865 calls)
     add_vuspsi   :    241.82s CPU    242.10s WALL (    8865 calls)

     General routines
     calbec       :    291.49s CPU    292.01s WALL (   10815 calls)
     fft          :     17.69s CPU     20.01s WALL (    1004 calls)
     ffts         :      1.50s CPU      1.57s WALL (     125 calls)
     fftw         :   4096.10s CPU   4216.60s WALL ( 1113354 calls)
     interpolate  :      2.47s CPU      2.62s WALL (      64 calls)

     Parallel routines

     PWSCF        :      2h39m CPU      3h20m WALL


   This run was terminated on:  21:29:49  11Nov2024            

=------------------------------------------------------------------------------=
   JOB DONE.
=------------------------------------------------------------------------------=
