 running on    8 total cores
 distrk:  each k-point on    8 cores,    1 groups
 distr:  one band on    4 cores,    2 groups
 using from now: INCAR     
 vasp.5.4.1 24Jun15 (build Apr 16 2019 17:04:28) complex                        
  
 POSCAR found type information on POSCAR  Fe V  O  Li
 POSCAR found :  4 types and     132 ions
 scaLAPACK will be used
 WARNING: PSMAXN for non-local potential too small
 LDA part: xc-table for Pade appr. of Perdew
 POSCAR, INCAR and KPOINTS ok, starting setup
 WARNING: small aliasing (wrap around) errors must be expected
 FFT: planning ...
 WAVECAR not read
 entering main loop
       N       E                     dE             d eps       ncg     rms          rms(c)
DAV:   1     0.134024762468E+05    0.13402E+05   -0.37293E+05 23808   0.219E+03
DAV:   2     0.331129742640E+04   -0.10091E+05   -0.91428E+04 23808   0.565E+02
DAV:   3    -0.224143104715E+03   -0.35354E+04   -0.31761E+04 26736   0.322E+02
DAV:   4    -0.119916962891E+04   -0.97503E+03   -0.94903E+03 36848   0.159E+02
DAV:   5    -0.128158369308E+04   -0.82414E+02   -0.81924E+02 38608   0.587E+01    0.231E+02
DAV:   6    -0.101127909961E+04    0.27030E+03   -0.23371E+03 39472   0.144E+02    0.160E+02
DAV:   7    -0.992237472355E+03    0.19042E+02   -0.20579E+03 42400   0.229E+02    0.147E+02
DAV:   8    -0.100413551348E+04   -0.11898E+02   -0.64553E+02 40504   0.492E+01    0.104E+02
DAV:   9    -0.930511902053E+03    0.73624E+02   -0.10388E+02 44344   0.330E+01    0.561E+01
DAV:  10    -0.916633460639E+03    0.13878E+02   -0.10365E+02 45240   0.339E+01    0.532E+01
DAV:  11    -0.915048922869E+03    0.15845E+01   -0.24292E+01 36336   0.122E+01    0.371E+01
DAV:  12    -0.912911688727E+03    0.21372E+01   -0.92903E+00 42760   0.839E+00    0.332E+01
DAV:  13    -0.911880973109E+03    0.10307E+01   -0.88276E+00 42536   0.785E+00    0.243E+01
DAV:  14    -0.911974133348E+03   -0.93160E-01   -0.58829E+00 41032   0.574E+00    0.146E+01
DAV:  15    -0.911747059976E+03    0.22707E+00   -0.99378E-01 38200   0.310E+00    0.906E+00
DAV:  16    -0.911332933301E+03    0.41413E+00   -0.11624E+00 38552   0.249E+00    0.704E+00
DAV:  17    -0.911231891950E+03    0.10104E+00   -0.37344E-01 38528   0.180E+00    0.315E+00
DAV:  18    -0.911208419461E+03    0.23472E-01   -0.74547E-02 38464   0.908E-01    0.191E+00
DAV:  19    -0.911197230531E+03    0.11189E-01   -0.34385E-02 40544   0.637E-01    0.146E+00
DAV:  20    -0.911187479681E+03    0.97508E-02   -0.22268E-02 42432   0.503E-01    0.800E-01
DAV:  21    -0.911183306488E+03    0.41732E-02   -0.25196E-02 38376   0.307E-01    0.339E-01
DAV:  22    -0.911183928993E+03   -0.62250E-03   -0.73836E-03 38624   0.178E-01    0.312E-01
DAV:  23    -0.911183589718E+03    0.33927E-03   -0.78054E-04 27688   0.102E-01    0.216E-01
DAV:  24    -0.911183437023E+03    0.15269E-03   -0.16894E-04 17504   0.436E-02    0.160E-01
DAV:  25    -0.911183196022E+03    0.24100E-03   -0.47279E-04 24320   0.707E-02    0.748E-02
DAV:  26    -0.911183197451E+03   -0.14290E-05   -0.72536E-04 26528   0.622E-02
   1 F= -.91118320E+03 E0= -.91119428E+03  d E =-.911183E+03  mag=    59.9327
 curvature:   0.00 expect dE= 0.000E+00 dE for cont linesearch  0.000E+00
 trial: gam= 0.00000 g(F)=  0.905E-04 g(S)=  0.253E-05 ort = 0.000E+00 (trialstep = 0.100E+01)
 search vector abs. value=  0.930E-04
 reached required accuracy - stopping structural energy minimisation
