### Running on host: gra740.graham.sharcnet

     Program PWSCF v.7.3.1 starts on 11Nov2024 at  1: 0:58 

     This program is part of the open-source Quantum ESPRESSO suite
     for quantum simulation of materials; please cite
         "P. Giannozzi et al., J. Phys.:Condens. Matter 21 395502 (2009);
         "P. Giannozzi et al., J. Phys.:Condens. Matter 29 465901 (2017);
         "P. Giannozzi et al., J. Chem. Phys. 152 154105 (2020);
          URL http://www.quantum-espresso.org", 
     in publications or presentations arising from this work. More details at
     http://www.quantum-espresso.org/quote

     Parallel version (MPI & OpenMP), running on       4 processor cores
     Number of MPI processes:                 4
     Threads/MPI process:                     1

     MPI processes distributed on     1 nodes
     58151 MiB available memory on the printing compute node when the environment starts

     Reading input from LAC_scf_ecutwfc-70.in

     Current dimensions of program PWSCF are:
     Max number of different atomic species (ntypx) = 10
     Max number of k-points (npk) =  40000
     Max angular momentum in pseudopotentials (lmaxx) =  4
     file Li.pbe-tm-gipaw-dc.UPF: wavefunction(s)  2S 2P 3S 3P renormalized
     WARNING: atomic wfc #  3 for atom typeAl has zero norm
     WARNING: atomic wfc #  4 for atom typeAl has zero norm
     Message from routine setup:
     using ibrav=0 with symmetry is DISCOURAGED, use correct ibrav instead

     R & G space division:  proc/nbgrp/npool/nimage =       4
     Subspace diagonalization in iterative solution of the eigenvalue problem:
     a serial algorithm will be used


     Parallelization info
     --------------------
     sticks:   dense  smooth     PW     G-vecs:    dense   smooth      PW
     Min        1940     906    242               247428    78885   10948
     Max        1941     907    243               247431    78890   10951
     Sum        7761    3627    969               989717   315553   43797

     Using Slab Decomposition



     bravais-lattice index     =            0
     lattice parameter (alat)  =      12.2889  a.u.
     unit-cell volume          =    3987.9110 (a.u.)^3
     number of atoms/cell      =           24
     number of atomic types    =            3
     number of electrons       =       128.00
     number of Kohn-Sham states=           64
     kinetic-energy cutoff     =      70.0000  Ry
     charge density cutoff     =     600.0000  Ry
     scf convergence threshold =      1.0E-06
     mixing beta               =       0.4000
     number of iterations used =            8  plain     mixing
     Exchange-correlation=  SLA  PW   PBX  PBC
                           (   1   4   3   4   0   0   0)

     celldm(1)=  12.288889  celldm(2)=   0.000000  celldm(3)=   0.000000
     celldm(4)=   0.000000  celldm(5)=   0.000000  celldm(6)=   0.000000

     crystal axes: (cart. coord. in units of alat)
               a(1) = (  -0.000000  -1.000000  -0.000000 )  
               a(2) = (  -1.075255   0.000000   0.061999 )  
               a(3) = (   0.000000   0.000000  -1.998462 )  

     reciprocal axes: (cart. coord. in units 2 pi/alat)
               b(1) = ( -0.000000 -1.000000 -0.000000 )  
               b(2) = ( -0.930012  0.000000  0.000000 )  
               b(3) = ( -0.028852  0.000000 -0.500385 )  


     PseudoPot. # 1 for Li read from file:
     /home/cgurwell/projects/rrg-ravh011/cgurwell/pseudo/Li.pbe-tm-gipaw-dc.UPF
     MD5 check sum: 258bf1e32d815cbe0990be85d5d6a6e5
     Pseudo is Norm-conserving + core correction, Zval =  1.0
     Generated by new atomic code, or converted to UPF format
     Using radial grid of 1371 points,  1 beta functions with: 
                l(1) =   0

     PseudoPot. # 2 for Al read from file:
     /home/cgurwell/projects/rrg-ravh011/cgurwell/pseudo/Al.pbe-tm-gipaw-dc.UPF
     MD5 check sum: efdf9c81b1c08458edd46fe92d869955
     Pseudo is Norm-conserving, Zval =  3.0
     Generated by new atomic code, or converted to UPF format
     Using radial grid of 1519 points,  2 beta functions with: 
                l(1) =   0
                l(2) =   1

     PseudoPot. # 3 for Cl read from file:
     /home/cgurwell/projects/rrg-ravh011/cgurwell/pseudo/Cl.pbe-tm-gipaw.UPF
     MD5 check sum: 6263502ce953d769893a136fffc16e2a
     Pseudo is Norm-conserving, Zval =  7.0
     Generated by new atomic code, or converted to UPF format
     Using radial grid of 1157 points,  2 beta functions with: 
                l(1) =   0
                l(2) =   1

     atomic species   valence    mass     pseudopotential
     Li                1.00     6.94100     Li( 1.00)
     Al                3.00    26.98154     Al( 1.00)
     Cl                7.00    35.45300     Cl( 1.00)

      4 Sym. Ops., with inversion, found ( 2 have fractional translation)


                                    s                        frac. trans.

      isym =  1     identity                                     

 cryst.   s( 1) = (     1          0          0      )
                  (     0          1          0      )
                  (     0          0          1      )

 cart.    s( 1) = (  1.0000000  0.0000000  0.0000000 )
                  (  0.0000000  1.0000000  0.0000000 )
                  (  0.0000000  0.0000000  1.0000000 )


      isym =  2     180 deg rotation - cart. axis [0,1,0]        

 cryst.   s( 2) = (     1          0          0      )    f =( -0.5000000 )
                  (     0         -1          0      )       (  0.0000000 )
                  (     0          0         -1      )       (  0.5000000 )

 cart.    s( 2) = ( -1.0000000  0.0000000  0.0000000 )    f =(  0.0000000 )
                  (  0.0000000  1.0000000  0.0000000 )       (  0.5000000 )
                  ( -0.0000000  0.0000000 -1.0000000 )       ( -0.9992311 )


      isym =  3     inversion                                    

 cryst.   s( 3) = (    -1          0          0      )
                  (     0         -1          0      )
                  (     0          0         -1      )

 cart.    s( 3) = ( -1.0000000  0.0000000  0.0000000 )
                  (  0.0000000 -1.0000000  0.0000000 )
                  ( -0.0000000  0.0000000 -1.0000000 )


      isym =  4     inv. 180 deg rotation - cart. axis [0,1,0]   

 cryst.   s( 4) = (    -1          0          0      )    f =(  0.5000000 )
                  (     0          1          0      )       (  0.0000000 )
                  (     0          0          1      )       ( -0.5000000 )

 cart.    s( 4) = (  1.0000000  0.0000000  0.0000000 )    f =( -0.0000000 )
                  (  0.0000000 -1.0000000  0.0000000 )       ( -0.5000000 )
                  (  0.0000000  0.0000000  1.0000000 )       (  0.9992311 )


   Cartesian axes

     site n.     atom                  positions (alat units)
         1        Li     tau(   1) = (  -0.9056877  -0.4850000  -0.2183702  )
         2        Li     tau(   2) = (  -0.1695678  -0.9850000  -0.7188621  )
         3        Li     tau(   3) = (  -0.1695678  -0.5150000  -1.7180932  )
         4        Li     tau(   4) = (  -0.9056877  -0.0150000  -1.2176013  )
         5        Al     tau(   5) = (  -0.3162326  -0.8217000  -1.1827820  )
         6        Al     tau(   6) = (  -0.7590228  -0.3217000  -1.7529125  )
         7        Al     tau(   7) = (  -0.7590228  -0.1783000  -0.7536814  )
         8        Al     tau(   8) = (  -0.3162326  -0.6783000  -0.1835509  )
         9        Cl     tau(   9) = (  -0.3292432  -0.6832000  -0.8869788  )
        10        Cl     tau(  10) = (  -0.7460122  -0.1832000  -0.0502534  )
        11        Cl     tau(  11) = (  -0.7460122  -0.3168000  -1.0494846  )
        12        Cl     tau(  12) = (  -0.3292432  -0.8168000  -1.8862100  )
        13        Cl     tau(  13) = (  -0.2058039  -0.1281000  -1.1300747  )
        14        Cl     tau(  14) = (  -0.8694515  -0.6281000  -1.8056198  )
        15        Cl     tau(  15) = (  -0.8694515  -0.8719000  -0.8063887  )
        16        Cl     tau(  16) = (  -0.2058039  -0.3719000  -0.1308436  )
        17        Cl     tau(  17) = (  -0.0801065  -0.6812000  -1.3666060  )
        18        Cl     tau(  18) = (  -0.9951489  -0.1812000  -1.5690886  )
        19        Cl     tau(  19) = (  -0.9951489  -0.3188000  -0.5698574  )
        20        Cl     tau(  20) = (  -0.0801065  -0.8188000  -0.3673748  )
        21        Cl     tau(  21) = (  -0.6024656  -0.8140000  -1.3383055  )
        22        Cl     tau(  22) = (  -0.4727898  -0.3140000  -1.5973890  )
        23        Cl     tau(  23) = (  -0.4727898  -0.1860000  -0.5981579  )
        24        Cl     tau(  24) = (  -0.6024656  -0.6860000  -0.3390744  )

   Crystallographic axes

     site n.     atom                  positions (cryst. coord.)
         1        Li     tau(   1) = (  0.4850000  0.8423000  0.1354000  )
         2        Li     tau(   2) = (  0.9850000  0.1577000  0.3646000  )
         3        Li     tau(   3) = (  0.5150000  0.1577000  0.8646000  )
         4        Li     tau(   4) = (  0.0150000  0.8423000  0.6354000  )
         5        Al     tau(   5) = (  0.8217000  0.2941000  0.6009700  )
         6        Al     tau(   6) = (  0.3217000  0.7059000  0.8990300  )
         7        Al     tau(   7) = (  0.1783000  0.7059000  0.3990300  )
         8        Al     tau(   8) = (  0.6783000  0.2941000  0.1009700  )
         9        Cl     tau(   9) = (  0.6832000  0.3062000  0.4533300  )
        10        Cl     tau(  10) = (  0.1832000  0.6938000  0.0466700  )
        11        Cl     tau(  11) = (  0.3168000  0.6938000  0.5466700  )
        12        Cl     tau(  12) = (  0.8168000  0.3062000  0.9533300  )
        13        Cl     tau(  13) = (  0.1281000  0.1914000  0.5714100  )
        14        Cl     tau(  14) = (  0.6281000  0.8086000  0.9285900  )
        15        Cl     tau(  15) = (  0.8719000  0.8086000  0.4285900  )
        16        Cl     tau(  16) = (  0.3719000  0.1914000  0.0714100  )
        17        Cl     tau(  17) = (  0.6812000  0.0745000  0.6861400  )
        18        Cl     tau(  18) = (  0.1812000  0.9255000  0.8138600  )
        19        Cl     tau(  19) = (  0.3188000  0.9255000  0.3138600  )
        20        Cl     tau(  20) = (  0.8188000  0.0745000  0.1861400  )
        21        Cl     tau(  21) = (  0.8140000  0.5603000  0.6870500  )
        22        Cl     tau(  22) = (  0.3140000  0.4397000  0.8129500  )
        23        Cl     tau(  23) = (  0.1860000  0.4397000  0.3129500  )
        24        Cl     tau(  24) = (  0.6860000  0.5603000  0.1870500  )

     number of k points=    39
                       cart. coord. in units 2pi/alat
        k(    1) = (  -0.0000000   0.0000000   0.0000000), wk =   0.0160000
        k(    2) = (  -0.0057704   0.0000000  -0.1000769), wk =   0.0320000
        k(    3) = (  -0.0115408   0.0000000  -0.2001539), wk =   0.0320000
        k(    4) = (  -0.1860023   0.0000000   0.0000000), wk =   0.0320000
        k(    5) = (  -0.1917727   0.0000000  -0.1000769), wk =   0.0320000
        k(    6) = (  -0.1975431   0.0000000  -0.2001539), wk =   0.0320000
        k(    7) = (  -0.1744615   0.0000000   0.2001539), wk =   0.0320000
        k(    8) = (  -0.1802319   0.0000000   0.1000769), wk =   0.0320000
        k(    9) = (  -0.3720046   0.0000000   0.0000000), wk =   0.0320000
        k(   10) = (  -0.3777750   0.0000000  -0.1000769), wk =   0.0320000
        k(   11) = (  -0.3835454   0.0000000  -0.2001539), wk =   0.0320000
        k(   12) = (  -0.3604638   0.0000000   0.2001539), wk =   0.0320000
        k(   13) = (  -0.3662342   0.0000000   0.1000769), wk =   0.0320000
        k(   14) = (  -0.0000000  -0.2000000   0.0000000), wk =   0.0320000
        k(   15) = (  -0.0057704  -0.2000000  -0.1000769), wk =   0.0640000
        k(   16) = (  -0.0115408  -0.2000000  -0.2001539), wk =   0.0640000
        k(   17) = (  -0.1860023  -0.2000000   0.0000000), wk =   0.0640000
        k(   18) = (  -0.1917727  -0.2000000  -0.1000769), wk =   0.0640000
        k(   19) = (  -0.1975431  -0.2000000  -0.2001539), wk =   0.0640000
        k(   20) = (  -0.1744615  -0.2000000   0.2001539), wk =   0.0640000
        k(   21) = (  -0.1802319  -0.2000000   0.1000769), wk =   0.0640000
        k(   22) = (  -0.3720046  -0.2000000   0.0000000), wk =   0.0640000
        k(   23) = (  -0.3777750  -0.2000000  -0.1000769), wk =   0.0640000
        k(   24) = (  -0.3835454  -0.2000000  -0.2001539), wk =   0.0640000
        k(   25) = (  -0.3604638  -0.2000000   0.2001539), wk =   0.0640000
        k(   26) = (  -0.3662342  -0.2000000   0.1000769), wk =   0.0640000
        k(   27) = (  -0.0000000  -0.4000000   0.0000000), wk =   0.0320000
        k(   28) = (  -0.0057704  -0.4000000  -0.1000769), wk =   0.0640000
        k(   29) = (  -0.0115408  -0.4000000  -0.2001539), wk =   0.0640000
        k(   30) = (  -0.1860023  -0.4000000   0.0000000), wk =   0.0640000
        k(   31) = (  -0.1917727  -0.4000000  -0.1000769), wk =   0.0640000
        k(   32) = (  -0.1975431  -0.4000000  -0.2001539), wk =   0.0640000
        k(   33) = (  -0.1744615  -0.4000000   0.2001539), wk =   0.0640000
        k(   34) = (  -0.1802319  -0.4000000   0.1000769), wk =   0.0640000
        k(   35) = (  -0.3720046  -0.4000000   0.0000000), wk =   0.0640000
        k(   36) = (  -0.3777750  -0.4000000  -0.1000769), wk =   0.0640000
        k(   37) = (  -0.3835454  -0.4000000  -0.2001539), wk =   0.0640000
        k(   38) = (  -0.3604638  -0.4000000   0.2001539), wk =   0.0640000
        k(   39) = (  -0.3662342  -0.4000000   0.1000769), wk =   0.0640000

                       cryst. coord.
        k(    1) = (   0.0000000   0.0000000   0.0000000), wk =   0.0160000
        k(    2) = (   0.0000000  -0.0000000   0.2000000), wk =   0.0320000
        k(    3) = (   0.0000000  -0.0000000   0.4000000), wk =   0.0320000
        k(    4) = (   0.0000000   0.2000000   0.0000000), wk =   0.0320000
        k(    5) = (   0.0000000   0.2000000   0.2000000), wk =   0.0320000
        k(    6) = (   0.0000000   0.2000000   0.4000000), wk =   0.0320000
        k(    7) = (   0.0000000   0.2000000  -0.4000000), wk =   0.0320000
        k(    8) = (   0.0000000   0.2000000  -0.2000000), wk =   0.0320000
        k(    9) = (   0.0000000   0.4000000   0.0000000), wk =   0.0320000
        k(   10) = (   0.0000000   0.4000000   0.2000000), wk =   0.0320000
        k(   11) = (   0.0000000   0.4000000   0.4000000), wk =   0.0320000
        k(   12) = (   0.0000000   0.4000000  -0.4000000), wk =   0.0320000
        k(   13) = (   0.0000000   0.4000000  -0.2000000), wk =   0.0320000
        k(   14) = (   0.2000000   0.0000000  -0.0000000), wk =   0.0320000
        k(   15) = (   0.2000000  -0.0000000   0.2000000), wk =   0.0640000
        k(   16) = (   0.2000000  -0.0000000   0.4000000), wk =   0.0640000
        k(   17) = (   0.2000000   0.2000000  -0.0000000), wk =   0.0640000
        k(   18) = (   0.2000000   0.2000000   0.2000000), wk =   0.0640000
        k(   19) = (   0.2000000   0.2000000   0.4000000), wk =   0.0640000
        k(   20) = (   0.2000000   0.2000000  -0.4000000), wk =   0.0640000
        k(   21) = (   0.2000000   0.2000000  -0.2000000), wk =   0.0640000
        k(   22) = (   0.2000000   0.4000000  -0.0000000), wk =   0.0640000
        k(   23) = (   0.2000000   0.4000000   0.2000000), wk =   0.0640000
        k(   24) = (   0.2000000   0.4000000   0.4000000), wk =   0.0640000
        k(   25) = (   0.2000000   0.4000000  -0.4000000), wk =   0.0640000
        k(   26) = (   0.2000000   0.4000000  -0.2000000), wk =   0.0640000
        k(   27) = (   0.4000000   0.0000000  -0.0000000), wk =   0.0320000
        k(   28) = (   0.4000000  -0.0000000   0.2000000), wk =   0.0640000
        k(   29) = (   0.4000000  -0.0000000   0.4000000), wk =   0.0640000
        k(   30) = (   0.4000000   0.2000000  -0.0000000), wk =   0.0640000
        k(   31) = (   0.4000000   0.2000000   0.2000000), wk =   0.0640000
        k(   32) = (   0.4000000   0.2000000   0.4000000), wk =   0.0640000
        k(   33) = (   0.4000000   0.2000000  -0.4000000), wk =   0.0640000
        k(   34) = (   0.4000000   0.2000000  -0.2000000), wk =   0.0640000
        k(   35) = (   0.4000000   0.4000000  -0.0000000), wk =   0.0640000
        k(   36) = (   0.4000000   0.4000000   0.2000000), wk =   0.0640000
        k(   37) = (   0.4000000   0.4000000   0.4000000), wk =   0.0640000
        k(   38) = (   0.4000000   0.4000000  -0.4000000), wk =   0.0640000
        k(   39) = (   0.4000000   0.4000000  -0.2000000), wk =   0.0640000

     Dense  grid:   989717 G-vectors     FFT dimensions: (  96, 108, 192)

     Smooth grid:   315553 G-vectors     FFT dimensions: (  72,  72, 144)

     Dynamical RAM for                 wfc:       9.63 MB

     Dynamical RAM for     wfc (w. buffer):     385.16 MB

     Dynamical RAM for           str. fact:      11.33 MB

     Dynamical RAM for           local pot:       0.00 MB

     Dynamical RAM for          nlocal pot:      12.64 MB

     Dynamical RAM for                qrad:       0.51 MB

     Dynamical RAM for          rho,v,vnew:      22.72 MB

     Dynamical RAM for               rhoin:       7.57 MB

     Dynamical RAM for            rho*nmix:      60.41 MB

     Dynamical RAM for           G-vectors:      14.76 MB

     Dynamical RAM for          h,s,v(r/c):       0.75 MB

     Dynamical RAM for          <psi|beta>:       0.08 MB

     Dynamical RAM for                 psi:      19.26 MB

     Dynamical RAM for                hpsi:      19.26 MB

     Dynamical RAM for      wfcinit/wfcrot:      64.82 MB

     Estimated static dynamical RAM per process >     488.76 MB

     Estimated max dynamical RAM per process >     613.99 MB

     Estimated total dynamical RAM >       2.40 GB

     Initial potential from superposition of free atoms

     starting charge     117.3963, renormalised to     128.0000
     Starting wfcs are  212 randomized atomic wfcs

     total cpu time spent up to now is      511.2 secs

     Self-consistent Calculation

     iteration #  1     ecut=    70.00 Ry     beta= 0.40
     Davidson diagonalization with overlap

---- Real-time Memory Report at c_bands before calling an iterative solver
           717 MiB given to the printing process from OS
             0 MiB allocation reported by mallinfo(arena+hblkhd)
         55691 MiB available memory on the node where the printing process lives
------------------
     ethr =  1.00E-02,  avg # of iterations =  2.0

     Threshold (ethr) on eigenvalues was too large:
     Diagonalizing with lowered threshold

     Davidson diagonalization with overlap

---- Real-time Memory Report at c_bands before calling an iterative solver
           717 MiB given to the printing process from OS
             0 MiB allocation reported by mallinfo(arena+hblkhd)
         54637 MiB available memory on the node where the printing process lives
------------------
     ethr =  2.25E-04,  avg # of iterations =  3.0

     total cpu time spent up to now is     1446.9 secs

     total energy              =    -501.66205671 Ry
     estimated scf accuracy    <       0.34011258 Ry

     iteration #  2     ecut=    70.00 Ry     beta= 0.40
     Davidson diagonalization with overlap

---- Real-time Memory Report at c_bands before calling an iterative solver
           746 MiB given to the printing process from OS
             0 MiB allocation reported by mallinfo(arena+hblkhd)
         54594 MiB available memory on the node where the printing process lives
------------------
     ethr =  2.66E-04,  avg # of iterations =  1.0

     total cpu time spent up to now is     1836.9 secs

     total energy              =    -501.67881310 Ry
     estimated scf accuracy    <       0.08753459 Ry

     iteration #  3     ecut=    70.00 Ry     beta= 0.40
     Davidson diagonalization with overlap

---- Real-time Memory Report at c_bands before calling an iterative solver
           749 MiB given to the printing process from OS
             0 MiB allocation reported by mallinfo(arena+hblkhd)
         53795 MiB available memory on the node where the printing process lives
------------------
     ethr =  6.84E-05,  avg # of iterations =  2.0

     total cpu time spent up to now is     2344.2 secs

     total energy              =    -501.68849645 Ry
     estimated scf accuracy    <       0.01162606 Ry

     iteration #  4     ecut=    70.00 Ry     beta= 0.40
     Davidson diagonalization with overlap

---- Real-time Memory Report at c_bands before calling an iterative solver
           751 MiB given to the printing process from OS
             0 MiB allocation reported by mallinfo(arena+hblkhd)
         53394 MiB available memory on the node where the printing process lives
------------------
     ethr =  9.08E-06,  avg # of iterations =  2.0

     total cpu time spent up to now is     2885.3 secs

     total energy              =    -501.69113942 Ry
     estimated scf accuracy    <       0.00510711 Ry

     iteration #  5     ecut=    70.00 Ry     beta= 0.40
     Davidson diagonalization with overlap

---- Real-time Memory Report at c_bands before calling an iterative solver
           754 MiB given to the printing process from OS
             0 MiB allocation reported by mallinfo(arena+hblkhd)
         52764 MiB available memory on the node where the printing process lives
------------------
     ethr =  3.99E-06,  avg # of iterations =  2.0

     total cpu time spent up to now is     3366.0 secs

     total energy              =    -501.69154490 Ry
     estimated scf accuracy    <       0.00039370 Ry

     iteration #  6     ecut=    70.00 Ry     beta= 0.40
     Davidson diagonalization with overlap

---- Real-time Memory Report at c_bands before calling an iterative solver
           756 MiB given to the printing process from OS
             0 MiB allocation reported by mallinfo(arena+hblkhd)
         51686 MiB available memory on the node where the printing process lives
------------------
     ethr =  3.08E-07,  avg # of iterations =  3.0

     total cpu time spent up to now is     3991.9 secs

     total energy              =    -501.69170664 Ry
     estimated scf accuracy    <       0.00041443 Ry

     iteration #  7     ecut=    70.00 Ry     beta= 0.40
     Davidson diagonalization with overlap

---- Real-time Memory Report at c_bands before calling an iterative solver
           759 MiB given to the printing process from OS
             0 MiB allocation reported by mallinfo(arena+hblkhd)
         51285 MiB available memory on the node where the printing process lives
------------------
     ethr =  3.08E-07,  avg # of iterations =  2.0

     total cpu time spent up to now is     4499.4 secs

     total energy              =    -501.69175705 Ry
     estimated scf accuracy    <       0.00001658 Ry

     iteration #  8     ecut=    70.00 Ry     beta= 0.40
     Davidson diagonalization with overlap

---- Real-time Memory Report at c_bands before calling an iterative solver
           761 MiB given to the printing process from OS
             0 MiB allocation reported by mallinfo(arena+hblkhd)
         50639 MiB available memory on the node where the printing process lives
------------------
     ethr =  1.29E-08,  avg # of iterations =  3.0

     total cpu time spent up to now is     5065.6 secs

     End of self-consistent calculation

          k =-0.0000 0.0000 0.0000 ( 39447 PWs)   bands (ev):

   -13.6789 -13.5180 -13.5015 -13.3646 -12.9861 -12.9839 -12.9353 -12.8963
   -12.8954 -12.8901 -12.8630 -12.8603 -12.7761 -12.7650 -12.7179 -12.7066
    -4.1247  -4.0787  -4.0641  -4.0197  -2.7966  -2.7404  -2.4985  -2.4419
    -2.3760  -2.3678  -2.3197  -2.1873  -2.1401  -2.1312  -2.0975  -1.9277
    -1.6479  -1.5336  -1.5256  -1.4579  -1.3462  -1.3177  -1.2514  -1.1960
    -1.1660  -1.0882  -0.9513  -0.9256  -0.8740  -0.7740  -0.6825  -0.6696
    -0.5303  -0.5284  -0.5231  -0.3705  -0.3548  -0.3350  -0.3307  -0.2550
    -0.1396  -0.1220  -0.0550  -0.0266  -0.0178   0.0412   0.0448   0.0573

     occupation numbers 
     1.0000   1.0000   1.0000   1.0000   1.0000   1.0000   1.0000   1.0000
     1.0000   1.0000   1.0000   1.0000   1.0000   1.0000   1.0000   1.0000
     1.0000   1.0000   1.0000   1.0000   1.0000   1.0000   1.0000   1.0000
     1.0000   1.0000   1.0000   1.0000   1.0000   1.0000   1.0000   1.0000
     1.0000   1.0000   1.0000   1.0000   1.0000   1.0000   1.0000   1.0000
     1.0000   1.0000   1.0000   1.0000   1.0000   1.0000   1.0000   1.0000
     1.0000   1.0000   1.0000   1.0000   1.0000   1.0000   1.0000   1.0000
     1.0000   1.0000   1.0000   1.0000   1.0000   1.0000   1.0000   1.0000

          k =-0.0058 0.0000-0.1001 ( 39429 PWs)   bands (ev):

   -13.6707 -13.5624 -13.4587 -13.3699 -12.9869 -12.9857 -12.9321 -12.9035
   -12.8940 -12.8861 -12.8629 -12.8607 -12.7752 -12.7663 -12.7162 -12.7073
    -4.1228  -4.0911  -4.0511  -4.0207  -2.7910  -2.7459  -2.4920  -2.4288
    -2.3723  -2.3720  -2.3412  -2.1988  -2.1821  -2.0842  -2.0715  -1.9467
    -1.6707  -1.5878  -1.5018  -1.4610  -1.3418  -1.3348  -1.2354  -1.1691
    -1.1672  -1.0178  -0.9609  -0.9018  -0.8768  -0.7997  -0.6875  -0.6469
    -0.5951  -0.5402  -0.4394  -0.3951  -0.3710  -0.3339  -0.2958  -0.2592
    -0.1446  -0.1347  -0.0620  -0.0319  -0.0190   0.0250   0.0469   0.0530

     occupation numbers 
     1.0000   1.0000   1.0000   1.0000   1.0000   1.0000   1.0000   1.0000
     1.0000   1.0000   1.0000   1.0000   1.0000   1.0000   1.0000   1.0000
     1.0000   1.0000   1.0000   1.0000   1.0000   1.0000   1.0000   1.0000
     1.0000   1.0000   1.0000   1.0000   1.0000   1.0000   1.0000   1.0000
     1.0000   1.0000   1.0000   1.0000   1.0000   1.0000   1.0000   1.0000
     1.0000   1.0000   1.0000   1.0000   1.0000   1.0000   1.0000   1.0000
     1.0000   1.0000   1.0000   1.0000   1.0000   1.0000   1.0000   1.0000
     1.0000   1.0000   1.0000   1.0000   1.0000   1.0000   1.0000   1.0000

          k =-0.0115 0.0000-0.2002 ( 39461 PWs)   bands (ev):

   -13.6468 -13.6094 -13.4167 -13.3867 -12.9883 -12.9883 -12.9248 -12.9148
   -12.8891 -12.8855 -12.8626 -12.8617 -12.7727 -12.7693 -12.7127 -12.7094
    -4.1167  -4.1059  -4.0356  -4.0252  -2.7769  -2.7598  -2.4687  -2.4275
    -2.3800  -2.3658  -2.3408  -2.2852  -2.1403  -2.0848  -2.0165  -1.9771
    -1.6965  -1.6694  -1.4631  -1.4545  -1.3550  -1.3482  -1.2118  -1.1864
    -1.1027  -1.0318  -0.8972  -0.8471  -0.8347  -0.8122  -0.7587  -0.6851
    -0.5606  -0.5090  -0.4488  -0.4407  -0.3457  -0.3126  -0.2911  -0.2683
    -0.1575  -0.1431  -0.0627  -0.0543  -0.0144   0.0028   0.0440   0.0448

     occupation numbers 
     1.0000   1.0000   1.0000   1.0000   1.0000   1.0000   1.0000   1.0000
     1.0000   1.0000   1.0000   1.0000   1.0000   1.0000   1.0000   1.0000
     1.0000   1.0000   1.0000   1.0000   1.0000   1.0000   1.0000   1.0000
     1.0000   1.0000   1.0000   1.0000   1.0000   1.0000   1.0000   1.0000
     1.0000   1.0000   1.0000   1.0000   1.0000   1.0000   1.0000   1.0000
     1.0000   1.0000   1.0000   1.0000   1.0000   1.0000   1.0000   1.0000
     1.0000   1.0000   1.0000   1.0000   1.0000   1.0000   1.0000   1.0000
     1.0000   1.0000   1.0000   1.0000   1.0000   1.0000   1.0000   1.0000

          k =-0.1860 0.0000 0.0000 ( 39451 PWs)   bands (ev):

   -13.6488 -13.5046 -13.4877 -13.3877 -13.0007 -12.9986 -12.9541 -12.9301
   -12.9271 -12.8803 -12.8411 -12.8241 -12.7695 -12.7612 -12.7219 -12.7134
    -4.0887  -4.0479  -4.0163  -3.9928  -2.7684  -2.7068  -2.5314  -2.5020
    -2.3511  -2.2840  -2.2499  -2.2031  -2.1677  -2.1178  -2.0644  -1.9775
    -1.7128  -1.5342  -1.4732  -1.4563  -1.4108  -1.3352  -1.2874  -1.1794
    -1.1127  -1.0866  -0.9838  -0.9003  -0.8065  -0.8032  -0.7024  -0.6506
    -0.6330  -0.5117  -0.4972  -0.4239  -0.3709  -0.3388  -0.3273  -0.3057
    -0.1922  -0.1559  -0.1105  -0.0903  -0.0655  -0.0055   0.0708   0.0710

     occupation numbers 
     1.0000   1.0000   1.0000   1.0000   1.0000   1.0000   1.0000   1.0000
     1.0000   1.0000   1.0000   1.0000   1.0000   1.0000   1.0000   1.0000
     1.0000   1.0000   1.0000   1.0000   1.0000   1.0000   1.0000   1.0000
     1.0000   1.0000   1.0000   1.0000   1.0000   1.0000   1.0000   1.0000
     1.0000   1.0000   1.0000   1.0000   1.0000   1.0000   1.0000   1.0000
     1.0000   1.0000   1.0000   1.0000   1.0000   1.0000   1.0000   1.0000
     1.0000   1.0000   1.0000   1.0000   1.0000   1.0000   1.0000   1.0000
     1.0000   1.0000   1.0000   1.0000   1.0000   1.0000   1.0000   1.0000

          k =-0.1918 0.0000-0.1001 ( 39459 PWs)   bands (ev):

   -13.6397 -13.5466 -13.4504 -13.3910 -13.0066 -12.9841 -12.9558 -12.9381
   -12.9336 -12.8755 -12.8412 -12.8221 -12.7681 -12.7644 -12.7177 -12.7161
    -4.0928  -4.0344  -4.0293  -3.9880  -2.7669  -2.7103  -2.5421  -2.4710
    -2.3716  -2.2770  -2.2685  -2.1742  -2.1522  -2.1217  -2.0755  -2.0231
    -1.7178  -1.5195  -1.4721  -1.4523  -1.3662  -1.3599  -1.3028  -1.2068
    -1.0973  -1.0465  -0.9383  -0.8592  -0.8269  -0.8025  -0.7254  -0.7235
    -0.6738  -0.5134  -0.4609  -0.3802  -0.3573  -0.3564  -0.3318  -0.3303
    -0.1851  -0.1580  -0.1205  -0.0839  -0.0534  -0.0082   0.0667   0.0698

     occupation numbers 
     1.0000   1.0000   1.0000   1.0000   1.0000   1.0000   1.0000   1.0000
     1.0000   1.0000   1.0000   1.0000   1.0000   1.0000   1.0000   1.0000
     1.0000   1.0000   1.0000   1.0000   1.0000   1.0000   1.0000   1.0000
     1.0000   1.0000   1.0000   1.0000   1.0000   1.0000   1.0000   1.0000
     1.0000   1.0000   1.0000   1.0000   1.0000   1.0000   1.0000   1.0000
     1.0000   1.0000   1.0000   1.0000   1.0000   1.0000   1.0000   1.0000
     1.0000   1.0000   1.0000   1.0000   1.0000   1.0000   1.0000   1.0000
     1.0000   1.0000   1.0000   1.0000   1.0000   1.0000   1.0000   1.0000

          k =-0.1975 0.0000-0.2002 ( 39462 PWs)   bands (ev):

   -13.6162 -13.5885 -13.4194 -13.4020 -13.0146 -12.9789 -12.9460 -12.9407
   -12.9343 -12.8816 -12.8403 -12.8260 -12.7656 -12.7632 -12.7223 -12.7116
    -4.0905  -4.0520  -4.0142  -3.9862  -2.7563  -2.7252  -2.5314  -2.4268
    -2.3834  -2.2941  -2.2815  -2.2038  -2.1386  -2.1074  -2.0802  -2.0467
    -1.7151  -1.5947  -1.5035  -1.4584  -1.3807  -1.2914  -1.2548  -1.1948
    -1.0882  -0.9658  -0.9227  -0.8538  -0.8301  -0.8013  -0.7694  -0.6948
    -0.6819  -0.5540  -0.4818  -0.3786  -0.3774  -0.3421  -0.3250  -0.2937
    -0.2044  -0.1890  -0.1044  -0.0800  -0.0562  -0.0280   0.0625   0.0743

     occupation numbers 
     1.0000   1.0000   1.0000   1.0000   1.0000   1.0000   1.0000   1.0000
     1.0000   1.0000   1.0000   1.0000   1.0000   1.0000   1.0000   1.0000
     1.0000   1.0000   1.0000   1.0000   1.0000   1.0000   1.0000   1.0000
     1.0000   1.0000   1.0000   1.0000   1.0000   1.0000   1.0000   1.0000
     1.0000   1.0000   1.0000   1.0000   1.0000   1.0000   1.0000   1.0000
     1.0000   1.0000   1.0000   1.0000   1.0000   1.0000   1.0000   1.0000
     1.0000   1.0000   1.0000   1.0000   1.0000   1.0000   1.0000   1.0000
     1.0000   1.0000   1.0000   1.0000   1.0000   1.0000   1.0000   1.0000

          k =-0.1745 0.0000 0.2002 ( 39456 PWs)   bands (ev):

   -13.6219 -13.5808 -13.4236 -13.3999 -13.0187 -12.9839 -12.9458 -12.9342
   -12.9160 -12.8965 -12.8364 -12.8328 -12.7664 -12.7585 -12.7259 -12.7096
    -4.0813  -4.0674  -4.0042  -3.9902  -2.7441  -2.7383  -2.5181  -2.4466
    -2.3338  -2.3015  -2.2943  -2.2334  -2.1851  -2.0825  -2.0536  -2.0273
    -1.6942  -1.6580  -1.5267  -1.4608  -1.3994  -1.2661  -1.2020  -1.1643
    -1.0985  -1.0112  -0.9300  -0.8721  -0.8614  -0.7937  -0.7105  -0.6452
    -0.5927  -0.5849  -0.5454  -0.4392  -0.3591  -0.3427  -0.2974  -0.2963
    -0.2111  -0.1792  -0.1073  -0.0869  -0.0627  -0.0428   0.0591   0.0844

     occupation numbers 
     1.0000   1.0000   1.0000   1.0000   1.0000   1.0000   1.0000   1.0000
     1.0000   1.0000   1.0000   1.0000   1.0000   1.0000   1.0000   1.0000
     1.0000   1.0000   1.0000   1.0000   1.0000   1.0000   1.0000   1.0000
     1.0000   1.0000   1.0000   1.0000   1.0000   1.0000   1.0000   1.0000
     1.0000   1.0000   1.0000   1.0000   1.0000   1.0000   1.0000   1.0000
     1.0000   1.0000   1.0000   1.0000   1.0000   1.0000   1.0000   1.0000
     1.0000   1.0000   1.0000   1.0000   1.0000   1.0000   1.0000   1.0000
     1.0000   1.0000   1.0000   1.0000   1.0000   1.0000   1.0000   1.0000

          k =-0.1802 0.0000 0.1001 ( 39438 PWs)   bands (ev):

   -13.6427 -13.5380 -13.4569 -13.3902 -13.0142 -12.9911 -12.9499 -12.9268
   -12.9146 -12.8951 -12.8387 -12.8302 -12.7680 -12.7578 -12.7260 -12.7105
    -4.0798  -4.0663  -4.0007  -3.9980  -2.7602  -2.7185  -2.5137  -2.4958
    -2.3101  -2.2946  -2.2571  -2.2481  -2.2124  -2.0840  -2.0483  -1.9837
    -1.6961  -1.6307  -1.5167  -1.4599  -1.4109  -1.2675  -1.2257  -1.1635
    -1.0973  -1.0921  -0.9582  -0.9312  -0.8242  -0.7611  -0.7020  -0.6484
    -0.5920  -0.5252  -0.4969  -0.4962  -0.3570  -0.3234  -0.3192  -0.2976
    -0.2352  -0.1454  -0.1310  -0.0684  -0.0547  -0.0431   0.0640   0.0816

     occupation numbers 
     1.0000   1.0000   1.0000   1.0000   1.0000   1.0000   1.0000   1.0000
     1.0000   1.0000   1.0000   1.0000   1.0000   1.0000   1.0000   1.0000
     1.0000   1.0000   1.0000   1.0000   1.0000   1.0000   1.0000   1.0000
     1.0000   1.0000   1.0000   1.0000   1.0000   1.0000   1.0000   1.0000
     1.0000   1.0000   1.0000   1.0000   1.0000   1.0000   1.0000   1.0000
     1.0000   1.0000   1.0000   1.0000   1.0000   1.0000   1.0000   1.0000
     1.0000   1.0000   1.0000   1.0000   1.0000   1.0000   1.0000   1.0000
     1.0000   1.0000   1.0000   1.0000   1.0000   1.0000   1.0000   1.0000

          k =-0.3720 0.0000 0.0000 ( 39477 PWs)   bands (ev):

   -13.5695 -13.4791 -13.4646 -13.4608 -13.0532 -13.0035 -12.9615 -12.9518
   -12.9482 -12.8927 -12.8175 -12.8025 -12.7558 -12.7522 -12.7303 -12.7278
    -4.0196  -3.9883  -3.9556  -3.9467  -2.6886  -2.6490  -2.5640  -2.4765
    -2.3686  -2.3341  -2.2378  -2.1430  -2.1297  -2.0604  -2.0576  -1.9899
    -1.7558  -1.7435  -1.5570  -1.4923  -1.3222  -1.2639  -1.1679  -1.1464
    -1.1165  -1.0574  -1.0204  -0.9416  -0.8922  -0.8303  -0.6790  -0.6271
    -0.6162  -0.5531  -0.5036  -0.4637  -0.4533  -0.4159  -0.3710  -0.3006
    -0.2697  -0.2450  -0.1905  -0.1233  -0.0514  -0.0339   0.0232   0.0426

     occupation numbers 
     1.0000   1.0000   1.0000   1.0000   1.0000   1.0000   1.0000   1.0000
     1.0000   1.0000   1.0000   1.0000   1.0000   1.0000   1.0000   1.0000
     1.0000   1.0000   1.0000   1.0000   1.0000   1.0000   1.0000   1.0000
     1.0000   1.0000   1.0000   1.0000   1.0000   1.0000   1.0000   1.0000
     1.0000   1.0000   1.0000   1.0000   1.0000   1.0000   1.0000   1.0000
     1.0000   1.0000   1.0000   1.0000   1.0000   1.0000   1.0000   1.0000
     1.0000   1.0000   1.0000   1.0000   1.0000   1.0000   1.0000   1.0000
     1.0000   1.0000   1.0000   1.0000   1.0000   1.0000   1.0000   1.0000

          k =-0.3778 0.0000-0.1001 ( 39463 PWs)   bands (ev):

   -13.5617 -13.5017 -13.4603 -13.4519 -13.0384 -13.0143 -12.9631 -12.9519
   -12.9475 -12.8940 -12.8192 -12.8036 -12.7566 -12.7479 -12.7349 -12.7239
    -4.0236  -3.9812  -3.9569  -3.9482  -2.6863  -2.6548  -2.5379  -2.4917
    -2.3743  -2.3133  -2.2591  -2.1291  -2.1194  -2.0870  -2.0515  -2.0206
    -1.7821  -1.7196  -1.5486  -1.4394  -1.3171  -1.3113  -1.1786  -1.1723
    -1.0763  -1.0383  -0.9852  -0.9442  -0.8793  -0.7982  -0.7401  -0.6761
    -0.6669  -0.5386  -0.4859  -0.4692  -0.4418  -0.4193  -0.3313  -0.3043
    -0.2996  -0.2165  -0.2042  -0.1114  -0.0650  -0.0200   0.0131   0.0562

     occupation numbers 
     1.0000   1.0000   1.0000   1.0000   1.0000   1.0000   1.0000   1.0000
     1.0000   1.0000   1.0000   1.0000   1.0000   1.0000   1.0000   1.0000
     1.0000   1.0000   1.0000   1.0000   1.0000   1.0000   1.0000   1.0000
     1.0000   1.0000   1.0000   1.0000   1.0000   1.0000   1.0000   1.0000
     1.0000   1.0000   1.0000   1.0000   1.0000   1.0000   1.0000   1.0000
     1.0000   1.0000   1.0000   1.0000   1.0000   1.0000   1.0000   1.0000
     1.0000   1.0000   1.0000   1.0000   1.0000   1.0000   1.0000   1.0000
     1.0000   1.0000   1.0000   1.0000   1.0000   1.0000   1.0000   1.0000

          k =-0.3835 0.0000-0.2002 ( 39452 PWs)   bands (ev):

   -13.5436 -13.5281 -13.4571 -13.4485 -13.0302 -13.0184 -12.9631 -12.9497
   -12.9397 -12.9052 -12.8203 -12.8097 -12.7547 -12.7427 -12.7384 -12.7215
    -4.0206  -3.9833  -3.9645  -3.9415  -2.6748  -2.6608  -2.5148  -2.4980
    -2.3895  -2.3140  -2.2459  -2.1301  -2.1126  -2.1048  -2.0691  -2.0418
    -1.7817  -1.6757  -1.5508  -1.4172  -1.4061  -1.3545  -1.1786  -1.1473
    -1.0300  -1.0068  -0.9536  -0.8638  -0.8315  -0.8249  -0.7409  -0.7242
    -0.7226  -0.6417  -0.4676  -0.4619  -0.3947  -0.3793  -0.3701  -0.3258
    -0.2883  -0.2234  -0.1499  -0.1374  -0.0983  -0.0151   0.0192   0.0646

     occupation numbers 
     1.0000   1.0000   1.0000   1.0000   1.0000   1.0000   1.0000   1.0000
     1.0000   1.0000   1.0000   1.0000   1.0000   1.0000   1.0000   1.0000
     1.0000   1.0000   1.0000   1.0000   1.0000   1.0000   1.0000   1.0000
     1.0000   1.0000   1.0000   1.0000   1.0000   1.0000   1.0000   1.0000
     1.0000   1.0000   1.0000   1.0000   1.0000   1.0000   1.0000   1.0000
     1.0000   1.0000   1.0000   1.0000   1.0000   1.0000   1.0000   1.0000
     1.0000   1.0000   1.0000   1.0000   1.0000   1.0000   1.0000   1.0000
     1.0000   1.0000   1.0000   1.0000   1.0000   1.0000   1.0000   1.0000

          k =-0.3605 0.0000 0.2002 ( 39432 PWs)   bands (ev):

   -13.5510 -13.5183 -13.4553 -13.4521 -13.0468 -13.0022 -12.9621 -12.9513
   -12.9250 -12.9186 -12.8161 -12.8153 -12.7529 -12.7465 -12.7345 -12.7223
    -4.0116  -3.9957  -3.9646  -3.9381  -2.6701  -2.6591  -2.5446  -2.4657
    -2.3949  -2.3345  -2.2069  -2.1555  -2.1413  -2.0825  -2.0721  -2.0240
    -1.7639  -1.6558  -1.5631  -1.5090  -1.3881  -1.3563  -1.1688  -1.1050
    -1.0570  -1.0413  -0.9322  -0.8394  -0.8188  -0.7925  -0.7739  -0.7250
    -0.6821  -0.6332  -0.4911  -0.4856  -0.4171  -0.3867  -0.3491  -0.3288
    -0.2416  -0.2104  -0.1940  -0.1240  -0.1203  -0.0216   0.0298   0.0586

     occupation numbers 
     1.0000   1.0000   1.0000   1.0000   1.0000   1.0000   1.0000   1.0000
     1.0000   1.0000   1.0000   1.0000   1.0000   1.0000   1.0000   1.0000
     1.0000   1.0000   1.0000   1.0000   1.0000   1.0000   1.0000   1.0000
     1.0000   1.0000   1.0000   1.0000   1.0000   1.0000   1.0000   1.0000
     1.0000   1.0000   1.0000   1.0000   1.0000   1.0000   1.0000   1.0000
     1.0000   1.0000   1.0000   1.0000   1.0000   1.0000   1.0000   1.0000
     1.0000   1.0000   1.0000   1.0000   1.0000   1.0000   1.0000   1.0000
     1.0000   1.0000   1.0000   1.0000   1.0000   1.0000   1.0000   1.0000

          k =-0.3662 0.0000 0.1001 ( 39437 PWs)   bands (ev):

   -13.5657 -13.4911 -13.4604 -13.4576 -13.0563 -12.9983 -12.9547 -12.9532
   -12.9452 -12.9009 -12.8174 -12.8082 -12.7527 -12.7518 -12.7311 -12.7258
    -4.0094  -3.9996  -3.9614  -3.9398  -2.6817  -2.6483  -2.5658  -2.4642
    -2.3685  -2.3585  -2.1996  -2.1618  -2.1460  -2.0732  -2.0493  -1.9992
    -1.7491  -1.7015  -1.5553  -1.5434  -1.3615  -1.3037  -1.1615  -1.1035
    -1.0948  -1.0507  -1.0101  -0.9008  -0.8490  -0.8218  -0.7241  -0.6376
    -0.6050  -0.5575  -0.5281  -0.5050  -0.4478  -0.4166  -0.3322  -0.3203
    -0.2588  -0.2172  -0.1941  -0.1256  -0.0996  -0.0237   0.0355   0.0413

     occupation numbers 
     1.0000   1.0000   1.0000   1.0000   1.0000   1.0000   1.0000   1.0000
     1.0000   1.0000   1.0000   1.0000   1.0000   1.0000   1.0000   1.0000
     1.0000   1.0000   1.0000   1.0000   1.0000   1.0000   1.0000   1.0000
     1.0000   1.0000   1.0000   1.0000   1.0000   1.0000   1.0000   1.0000
     1.0000   1.0000   1.0000   1.0000   1.0000   1.0000   1.0000   1.0000
     1.0000   1.0000   1.0000   1.0000   1.0000   1.0000   1.0000   1.0000
     1.0000   1.0000   1.0000   1.0000   1.0000   1.0000   1.0000   1.0000
     1.0000   1.0000   1.0000   1.0000   1.0000   1.0000   1.0000   1.0000

          k =-0.0000-0.2000 0.0000 ( 39495 PWs)   bands (ev):

   -13.6507 -13.5103 -13.4866 -13.3809 -12.9953 -12.9890 -12.9341 -12.9093
   -12.8986 -12.8773 -12.8708 -12.8526 -12.7986 -12.7808 -12.7128 -12.7035
    -4.1250  -4.0728  -4.0590  -4.0300  -2.7325  -2.6848  -2.5530  -2.4265
    -2.3991  -2.3600  -2.3243  -2.2622  -2.2172  -2.0265  -2.0041  -1.9144
    -1.6591  -1.6567  -1.4752  -1.4316  -1.3521  -1.3195  -1.2541  -1.2184
    -1.0617  -1.0465  -0.9652  -0.9145  -0.9043  -0.7042  -0.6920  -0.6670
    -0.5827  -0.4796  -0.4750  -0.4292  -0.3705  -0.3517  -0.3324  -0.2418
    -0.1773  -0.1231  -0.0951  -0.0772  -0.0188   0.0362   0.0365   0.0457

     occupation numbers 
     1.0000   1.0000   1.0000   1.0000   1.0000   1.0000   1.0000   1.0000
     1.0000   1.0000   1.0000   1.0000   1.0000   1.0000   1.0000   1.0000
     1.0000   1.0000   1.0000   1.0000   1.0000   1.0000   1.0000   1.0000
     1.0000   1.0000   1.0000   1.0000   1.0000   1.0000   1.0000   1.0000
     1.0000   1.0000   1.0000   1.0000   1.0000   1.0000   1.0000   1.0000
     1.0000   1.0000   1.0000   1.0000   1.0000   1.0000   1.0000   1.0000
     1.0000   1.0000   1.0000   1.0000   1.0000   1.0000   1.0000   1.0000
     1.0000   1.0000   1.0000   1.0000   1.0000   1.0000   1.0000   1.0000

          k =-0.0058-0.2000-0.1001 ( 39468 PWs)   bands (ev):

   -13.6431 -13.5455 -13.4543 -13.3847 -12.9961 -12.9892 -12.9318 -12.9129
   -12.8952 -12.8788 -12.8696 -12.8549 -12.7966 -12.7824 -12.7115 -12.7042
    -4.1221  -4.0849  -4.0483  -4.0297  -2.7263  -2.6881  -2.5442  -2.4357
    -2.4071  -2.3730  -2.3349  -2.2400  -2.1945  -2.0448  -1.9946  -1.9404
    -1.7151  -1.6413  -1.4616  -1.4250  -1.3489  -1.3065  -1.2481  -1.1732
    -1.0792  -1.0282  -0.9751  -0.9206  -0.8691  -0.7493  -0.6923  -0.6189
    -0.5859  -0.5366  -0.4518  -0.4241  -0.3943  -0.3420  -0.3193  -0.2423
    -0.1722  -0.1273  -0.1012  -0.0794  -0.0238   0.0294   0.0318   0.0465

     occupation numbers 
     1.0000   1.0000   1.0000   1.0000   1.0000   1.0000   1.0000   1.0000
     1.0000   1.0000   1.0000   1.0000   1.0000   1.0000   1.0000   1.0000
     1.0000   1.0000   1.0000   1.0000   1.0000   1.0000   1.0000   1.0000
     1.0000   1.0000   1.0000   1.0000   1.0000   1.0000   1.0000   1.0000
     1.0000   1.0000   1.0000   1.0000   1.0000   1.0000   1.0000   1.0000
     1.0000   1.0000   1.0000   1.0000   1.0000   1.0000   1.0000   1.0000
     1.0000   1.0000   1.0000   1.0000   1.0000   1.0000   1.0000   1.0000
     1.0000   1.0000   1.0000   1.0000   1.0000   1.0000   1.0000   1.0000

          k =-0.0115-0.2000-0.2002 ( 39443 PWs)   bands (ev):

   -13.6211 -13.5872 -13.4205 -13.3973 -12.9953 -12.9918 -12.9265 -12.9197
   -12.8888 -12.8829 -12.8659 -12.8603 -12.7919 -12.7866 -12.7087 -12.7060
    -4.1138  -4.1008  -4.0368  -4.0309  -2.7119  -2.6975  -2.5160  -2.4708
    -2.4147  -2.4049  -2.3003  -2.2614  -2.1243  -2.0641  -1.9992  -1.9940
    -1.7259  -1.6876  -1.4182  -1.3895  -1.3554  -1.3509  -1.1636  -1.1398
    -1.1125  -1.0648  -0.9117  -0.8752  -0.8493  -0.8037  -0.6739  -0.6491
    -0.5648  -0.5286  -0.5119  -0.4858  -0.3320  -0.3196  -0.3065  -0.2483
    -0.1765  -0.1447  -0.1078  -0.0922  -0.0122   0.0121   0.0309   0.0408

     occupation numbers 
     1.0000   1.0000   1.0000   1.0000   1.0000   1.0000   1.0000   1.0000
     1.0000   1.0000   1.0000   1.0000   1.0000   1.0000   1.0000   1.0000
     1.0000   1.0000   1.0000   1.0000   1.0000   1.0000   1.0000   1.0000
     1.0000   1.0000   1.0000   1.0000   1.0000   1.0000   1.0000   1.0000
     1.0000   1.0000   1.0000   1.0000   1.0000   1.0000   1.0000   1.0000
     1.0000   1.0000   1.0000   1.0000   1.0000   1.0000   1.0000   1.0000
     1.0000   1.0000   1.0000   1.0000   1.0000   1.0000   1.0000   1.0000
     1.0000   1.0000   1.0000   1.0000   1.0000   1.0000   1.0000   1.0000

          k =-0.1860-0.2000 0.0000 ( 39458 PWs)   bands (ev):

   -13.6224 -13.4970 -13.4739 -13.3957 -13.0044 -13.0014 -12.9681 -12.9363
   -12.9139 -12.8877 -12.8455 -12.8226 -12.7902 -12.7729 -12.7218 -12.7095
    -4.0926  -4.0399  -4.0210  -3.9807  -2.7071  -2.6697  -2.5767  -2.4410
    -2.3901  -2.3395  -2.2498  -2.2281  -2.1770  -2.0970  -1.9912  -1.9612
    -1.7127  -1.6407  -1.4686  -1.4351  -1.3950  -1.3294  -1.2548  -1.1616
    -1.1040  -1.0406  -0.9671  -0.9237  -0.8432  -0.7325  -0.7099  -0.6765
    -0.6120  -0.5197  -0.4769  -0.4388  -0.4127  -0.3485  -0.3361  -0.2745
    -0.2238  -0.1931  -0.1062  -0.0903  -0.0683  -0.0170   0.0405   0.0665

     occupation numbers 
     1.0000   1.0000   1.0000   1.0000   1.0000   1.0000   1.0000   1.0000
     1.0000   1.0000   1.0000   1.0000   1.0000   1.0000   1.0000   1.0000
     1.0000   1.0000   1.0000   1.0000   1.0000   1.0000   1.0000   1.0000
     1.0000   1.0000   1.0000   1.0000   1.0000   1.0000   1.0000   1.0000
     1.0000   1.0000   1.0000   1.0000   1.0000   1.0000   1.0000   1.0000
     1.0000   1.0000   1.0000   1.0000   1.0000   1.0000   1.0000   1.0000
     1.0000   1.0000   1.0000   1.0000   1.0000   1.0000   1.0000   1.0000
     1.0000   1.0000   1.0000   1.0000   1.0000   1.0000   1.0000   1.0000

          k =-0.1918-0.2000-0.1001 ( 39441 PWs)   bands (ev):

   -13.6139 -13.5309 -13.4447 -13.3991 -13.0063 -12.9931 -12.9703 -12.9349
   -12.9252 -12.8847 -12.8418 -12.8233 -12.7901 -12.7747 -12.7202 -12.7100
    -4.0920  -4.0444  -4.0166  -3.9799  -2.7011  -2.6746  -2.5818  -2.4228
    -2.3830  -2.3348  -2.3052  -2.2339  -2.1405  -2.0891  -2.0002  -1.9714
    -1.7361  -1.6470  -1.4614  -1.4272  -1.3628  -1.3247  -1.2563  -1.1921
    -1.0645  -1.0117  -0.9478  -0.9291  -0.8633  -0.7803  -0.7038  -0.6862
    -0.6422  -0.5145  -0.4532  -0.4464  -0.3821  -0.3455  -0.3249  -0.3097
    -0.2014  -0.1899  -0.1222  -0.0876  -0.0687  -0.0240   0.0463   0.0622

     occupation numbers 
     1.0000   1.0000   1.0000   1.0000   1.0000   1.0000   1.0000   1.0000
     1.0000   1.0000   1.0000   1.0000   1.0000   1.0000   1.0000   1.0000
     1.0000   1.0000   1.0000   1.0000   1.0000   1.0000   1.0000   1.0000
     1.0000   1.0000   1.0000   1.0000   1.0000   1.0000   1.0000   1.0000
     1.0000   1.0000   1.0000   1.0000   1.0000   1.0000   1.0000   1.0000
     1.0000   1.0000   1.0000   1.0000   1.0000   1.0000   1.0000   1.0000
     1.0000   1.0000   1.0000   1.0000   1.0000   1.0000   1.0000   1.0000
     1.0000   1.0000   1.0000   1.0000   1.0000   1.0000   1.0000   1.0000

          k =-0.1975-0.2000-0.2002 ( 39447 PWs)   bands (ev):

   -13.5923 -13.5677 -13.4198 -13.4080 -13.0094 -12.9893 -12.9677 -12.9410
   -12.9208 -12.8855 -12.8410 -12.8286 -12.7870 -12.7748 -12.7215 -12.7085
    -4.0914  -4.0464  -4.0172  -3.9759  -2.6931  -2.6861  -2.5680  -2.3990
    -2.3758  -2.3621  -2.3186  -2.2391  -2.1033  -2.0965  -2.0508  -1.9770
    -1.7510  -1.6709  -1.4731  -1.4199  -1.3407  -1.2670  -1.2256  -1.2222
    -1.0600  -0.9754  -0.9501  -0.9109  -0.8313  -0.8112  -0.7193  -0.6918
    -0.6359  -0.5209  -0.5066  -0.4418  -0.4069  -0.3572  -0.3107  -0.2527
    -0.2003  -0.1810  -0.1373  -0.0823  -0.0732  -0.0562   0.0521   0.0586

     occupation numbers 
     1.0000   1.0000   1.0000   1.0000   1.0000   1.0000   1.0000   1.0000
     1.0000   1.0000   1.0000   1.0000   1.0000   1.0000   1.0000   1.0000
     1.0000   1.0000   1.0000   1.0000   1.0000   1.0000   1.0000   1.0000
     1.0000   1.0000   1.0000   1.0000   1.0000   1.0000   1.0000   1.0000
     1.0000   1.0000   1.0000   1.0000   1.0000   1.0000   1.0000   1.0000
     1.0000   1.0000   1.0000   1.0000   1.0000   1.0000   1.0000   1.0000
     1.0000   1.0000   1.0000   1.0000   1.0000   1.0000   1.0000   1.0000
     1.0000   1.0000   1.0000   1.0000   1.0000   1.0000   1.0000   1.0000

          k =-0.1745-0.2000 0.2002 ( 39461 PWs)   bands (ev):

   -13.5979 -13.5601 -13.4261 -13.4038 -13.0123 -12.9922 -12.9651 -12.9417
   -12.9087 -12.8912 -12.8409 -12.8342 -12.7847 -12.7735 -12.7236 -12.7075
    -4.0917  -4.0435  -4.0214  -3.9744  -2.6989  -2.6832  -2.5537  -2.4265
    -2.3770  -2.3547  -2.2901  -2.2284  -2.1451  -2.1029  -2.0183  -2.0017
    -1.7312  -1.6901  -1.4915  -1.4263  -1.3099  -1.2830  -1.2101  -1.1810
    -1.0912  -1.0285  -0.9576  -0.8915  -0.8340  -0.7363  -0.7159  -0.6540
    -0.6000  -0.5887  -0.5295  -0.4652  -0.4305  -0.3404  -0.3061  -0.2555
    -0.1990  -0.1547  -0.1311  -0.1015  -0.0812  -0.0608   0.0500   0.0624

     occupation numbers 
     1.0000   1.0000   1.0000   1.0000   1.0000   1.0000   1.0000   1.0000
     1.0000   1.0000   1.0000   1.0000   1.0000   1.0000   1.0000   1.0000
     1.0000   1.0000   1.0000   1.0000   1.0000   1.0000   1.0000   1.0000
     1.0000   1.0000   1.0000   1.0000   1.0000   1.0000   1.0000   1.0000
     1.0000   1.0000   1.0000   1.0000   1.0000   1.0000   1.0000   1.0000
     1.0000   1.0000   1.0000   1.0000   1.0000   1.0000   1.0000   1.0000
     1.0000   1.0000   1.0000   1.0000   1.0000   1.0000   1.0000   1.0000
     1.0000   1.0000   1.0000   1.0000   1.0000   1.0000   1.0000   1.0000

          k =-0.1802-0.2000 0.1001 ( 39451 PWs)   bands (ev):

   -13.6168 -13.5222 -13.4526 -13.3969 -13.0113 -12.9971 -12.9654 -12.9387
   -12.9024 -12.8948 -12.8454 -12.8290 -12.7869 -12.7719 -12.7238 -12.7081
    -4.0924  -4.0377  -4.0257  -3.9771  -2.7071  -2.6734  -2.5608  -2.4437
    -2.3859  -2.3433  -2.2506  -2.2147  -2.1869  -2.1059  -2.0132  -1.9694
    -1.7010  -1.6807  -1.4950  -1.4325  -1.3609  -1.2921  -1.2116  -1.1739
    -1.1109  -1.0426  -0.9854  -0.9082  -0.8123  -0.7433  -0.6982  -0.6549
    -0.5806  -0.5337  -0.5144  -0.4769  -0.4546  -0.3495  -0.3142  -0.2454
    -0.2221  -0.1764  -0.1274  -0.0839  -0.0584  -0.0538   0.0449   0.0655

     occupation numbers 
     1.0000   1.0000   1.0000   1.0000   1.0000   1.0000   1.0000   1.0000
     1.0000   1.0000   1.0000   1.0000   1.0000   1.0000   1.0000   1.0000
     1.0000   1.0000   1.0000   1.0000   1.0000   1.0000   1.0000   1.0000
     1.0000   1.0000   1.0000   1.0000   1.0000   1.0000   1.0000   1.0000
     1.0000   1.0000   1.0000   1.0000   1.0000   1.0000   1.0000   1.0000
     1.0000   1.0000   1.0000   1.0000   1.0000   1.0000   1.0000   1.0000
     1.0000   1.0000   1.0000   1.0000   1.0000   1.0000   1.0000   1.0000
     1.0000   1.0000   1.0000   1.0000   1.0000   1.0000   1.0000   1.0000

          k =-0.3720-0.2000 0.0000 ( 39434 PWs)   bands (ev):

   -13.5493 -13.4739 -13.4531 -13.4491 -13.0483 -13.0149 -12.9719 -12.9624
   -12.9441 -12.8967 -12.8179 -12.8076 -12.7746 -12.7532 -12.7410 -12.7252
    -4.0256  -4.0046  -3.9335  -3.9127  -2.6383  -2.6342  -2.5924  -2.4692
    -2.4079  -2.3136  -2.2065  -2.1913  -2.1362  -2.0591  -2.0169  -1.9663
    -1.7704  -1.7281  -1.5535  -1.4466  -1.3620  -1.2683  -1.2513  -1.2043
    -1.0661  -1.0273  -0.9811  -0.9361  -0.8667  -0.7868  -0.7270  -0.6729
    -0.5824  -0.5482  -0.5345  -0.5102  -0.4560  -0.3862  -0.3691  -0.2966
    -0.2916  -0.2173  -0.1437  -0.1415  -0.0607  -0.0306  -0.0101   0.0204

     occupation numbers 
     1.0000   1.0000   1.0000   1.0000   1.0000   1.0000   1.0000   1.0000
     1.0000   1.0000   1.0000   1.0000   1.0000   1.0000   1.0000   1.0000
     1.0000   1.0000   1.0000   1.0000   1.0000   1.0000   1.0000   1.0000
     1.0000   1.0000   1.0000   1.0000   1.0000   1.0000   1.0000   1.0000
     1.0000   1.0000   1.0000   1.0000   1.0000   1.0000   1.0000   1.0000
     1.0000   1.0000   1.0000   1.0000   1.0000   1.0000   1.0000   1.0000
     1.0000   1.0000   1.0000   1.0000   1.0000   1.0000   1.0000   1.0000
     1.0000   1.0000   1.0000   1.0000   1.0000   1.0000   1.0000   1.0000

          k =-0.3778-0.2000-0.1001 ( 39430 PWs)   bands (ev):

   -13.5421 -13.4904 -13.4513 -13.4429 -13.0371 -13.0205 -12.9751 -12.9660
   -12.9397 -12.8982 -12.8191 -12.8085 -12.7746 -12.7534 -12.7397 -12.7248
    -4.0286  -4.0007  -3.9319  -3.9150  -2.6412  -2.6362  -2.5745  -2.4826
    -2.3917  -2.3334  -2.2295  -2.1594  -2.1269  -2.0494  -2.0172  -2.0023
    -1.7933  -1.7103  -1.5469  -1.4052  -1.3662  -1.2867  -1.2593  -1.1993
    -1.0698  -1.0248  -0.9664  -0.9321  -0.8551  -0.8041  -0.7604  -0.6864
    -0.5881  -0.5681  -0.5377  -0.4899  -0.4362  -0.3924  -0.3290  -0.3054
    -0.2684  -0.2288  -0.1625  -0.1336  -0.0800  -0.0265  -0.0020   0.0220

     occupation numbers 
     1.0000   1.0000   1.0000   1.0000   1.0000   1.0000   1.0000   1.0000
     1.0000   1.0000   1.0000   1.0000   1.0000   1.0000   1.0000   1.0000
     1.0000   1.0000   1.0000   1.0000   1.0000   1.0000   1.0000   1.0000
     1.0000   1.0000   1.0000   1.0000   1.0000   1.0000   1.0000   1.0000
     1.0000   1.0000   1.0000   1.0000   1.0000   1.0000   1.0000   1.0000
     1.0000   1.0000   1.0000   1.0000   1.0000   1.0000   1.0000   1.0000
     1.0000   1.0000   1.0000   1.0000   1.0000   1.0000   1.0000   1.0000
     1.0000   1.0000   1.0000   1.0000   1.0000   1.0000   1.0000   1.0000

          k =-0.3835-0.2000-0.2002 ( 39425 PWs)   bands (ev):

   -13.5260 -13.5120 -13.4503 -13.4401 -13.0295 -13.0198 -12.9819 -12.9705
   -12.9256 -12.9040 -12.8229 -12.8138 -12.7695 -12.7528 -12.7406 -12.7239
    -4.0293  -3.9970  -3.9383  -3.9113  -2.6440  -2.6329  -2.5587  -2.4849
    -2.3790  -2.3644  -2.2238  -2.1414  -2.1091  -2.0838  -2.0332  -2.0079
    -1.7950  -1.6942  -1.5409  -1.4232  -1.3685  -1.3177  -1.2517  -1.1575
    -1.0914  -1.0170  -0.9762  -0.8909  -0.8108  -0.7974  -0.7558  -0.7034
    -0.6591  -0.5982  -0.5446  -0.4830  -0.4010  -0.3924  -0.3258  -0.2710
    -0.2501  -0.2232  -0.1815  -0.1604  -0.0901  -0.0317   0.0024   0.0270

     occupation numbers 
     1.0000   1.0000   1.0000   1.0000   1.0000   1.0000   1.0000   1.0000
     1.0000   1.0000   1.0000   1.0000   1.0000   1.0000   1.0000   1.0000
     1.0000   1.0000   1.0000   1.0000   1.0000   1.0000   1.0000   1.0000
     1.0000   1.0000   1.0000   1.0000   1.0000   1.0000   1.0000   1.0000
     1.0000   1.0000   1.0000   1.0000   1.0000   1.0000   1.0000   1.0000
     1.0000   1.0000   1.0000   1.0000   1.0000   1.0000   1.0000   1.0000
     1.0000   1.0000   1.0000   1.0000   1.0000   1.0000   1.0000   1.0000
     1.0000   1.0000   1.0000   1.0000   1.0000   1.0000   1.0000   1.0000

          k =-0.3605-0.2000 0.2002 ( 39422 PWs)   bands (ev):

   -13.5331 -13.5024 -13.4518 -13.4409 -13.0411 -13.0073 -12.9849 -12.9701
   -12.9179 -12.9089 -12.8234 -12.8164 -12.7667 -12.7520 -12.7426 -12.7239
    -4.0274  -3.9979  -3.9425  -3.9081  -2.6430  -2.6291  -2.5724  -2.4547
    -2.4243  -2.3354  -2.1979  -2.1818  -2.1099  -2.0881  -2.0350  -1.9916
    -1.7762  -1.6999  -1.5465  -1.4548  -1.3817  -1.3093  -1.2428  -1.1386
    -1.1239  -1.0218  -0.9352  -0.8847  -0.8238  -0.7601  -0.7407  -0.6945
    -0.6733  -0.6115  -0.5601  -0.4862  -0.4200  -0.3743  -0.3234  -0.3045
    -0.2484  -0.1972  -0.1709  -0.1673  -0.0983  -0.0378   0.0095   0.0224

     occupation numbers 
     1.0000   1.0000   1.0000   1.0000   1.0000   1.0000   1.0000   1.0000
     1.0000   1.0000   1.0000   1.0000   1.0000   1.0000   1.0000   1.0000
     1.0000   1.0000   1.0000   1.0000   1.0000   1.0000   1.0000   1.0000
     1.0000   1.0000   1.0000   1.0000   1.0000   1.0000   1.0000   1.0000
     1.0000   1.0000   1.0000   1.0000   1.0000   1.0000   1.0000   1.0000
     1.0000   1.0000   1.0000   1.0000   1.0000   1.0000   1.0000   1.0000
     1.0000   1.0000   1.0000   1.0000   1.0000   1.0000   1.0000   1.0000
     1.0000   1.0000   1.0000   1.0000   1.0000   1.0000   1.0000   1.0000

          k =-0.3662-0.2000 0.1001 ( 39447 PWs)   bands (ev):

   -13.5460 -13.4795 -13.4570 -13.4438 -13.0496 -13.0089 -12.9766 -12.9669
   -12.9330 -12.8993 -12.8241 -12.8088 -12.7706 -12.7514 -12.7433 -12.7246
    -4.0249  -4.0030  -3.9397  -3.9086  -2.6405  -2.6289  -2.5906  -2.4542
    -2.4220  -2.3153  -2.2123  -2.1865  -2.1210  -2.0823  -2.0250  -1.9652
    -1.7554  -1.7254  -1.5522  -1.4762  -1.3790  -1.2662  -1.2503  -1.1776
    -1.0999  -1.0183  -0.9623  -0.9155  -0.8258  -0.7736  -0.7201  -0.6787
    -0.6146  -0.5934  -0.5712  -0.4648  -0.4576  -0.3849  -0.3482  -0.3024
    -0.2900  -0.1909  -0.1662  -0.1400  -0.0745  -0.0444   0.0019   0.0217

     occupation numbers 
     1.0000   1.0000   1.0000   1.0000   1.0000   1.0000   1.0000   1.0000
     1.0000   1.0000   1.0000   1.0000   1.0000   1.0000   1.0000   1.0000
     1.0000   1.0000   1.0000   1.0000   1.0000   1.0000   1.0000   1.0000
     1.0000   1.0000   1.0000   1.0000   1.0000   1.0000   1.0000   1.0000
     1.0000   1.0000   1.0000   1.0000   1.0000   1.0000   1.0000   1.0000
     1.0000   1.0000   1.0000   1.0000   1.0000   1.0000   1.0000   1.0000
     1.0000   1.0000   1.0000   1.0000   1.0000   1.0000   1.0000   1.0000
     1.0000   1.0000   1.0000   1.0000   1.0000   1.0000   1.0000   1.0000

          k =-0.0000-0.4000 0.0000 ( 39430 PWs)   bands (ev):

   -13.5799 -13.5162 -13.4541 -13.4204 -13.0120 -13.0046 -12.9299 -12.9235
   -12.8915 -12.8820 -12.8618 -12.8540 -12.8173 -12.8033 -12.7115 -12.7075
    -4.1125  -4.0827  -4.0500  -4.0441  -2.5948  -2.5791  -2.5593  -2.5275
    -2.4632  -2.4375  -2.2776  -2.2192  -2.1849  -2.0454  -1.9095  -1.8837
    -1.7016  -1.6921  -1.4841  -1.4556  -1.3578  -1.2701  -1.1976  -1.1957
    -1.0870  -1.0546  -1.0082  -0.8638  -0.8519  -0.7242  -0.7033  -0.6547
    -0.6365  -0.5683  -0.4157  -0.3732  -0.3639  -0.3368  -0.2930  -0.2143
    -0.1894  -0.1777  -0.1574  -0.1401  -0.0129  -0.0125   0.0109   0.0410

     occupation numbers 
     1.0000   1.0000   1.0000   1.0000   1.0000   1.0000   1.0000   1.0000
     1.0000   1.0000   1.0000   1.0000   1.0000   1.0000   1.0000   1.0000
     1.0000   1.0000   1.0000   1.0000   1.0000   1.0000   1.0000   1.0000
     1.0000   1.0000   1.0000   1.0000   1.0000   1.0000   1.0000   1.0000
     1.0000   1.0000   1.0000   1.0000   1.0000   1.0000   1.0000   1.0000
     1.0000   1.0000   1.0000   1.0000   1.0000   1.0000   1.0000   1.0000
     1.0000   1.0000   1.0000   1.0000   1.0000   1.0000   1.0000   1.0000
     1.0000   1.0000   1.0000   1.0000   1.0000   1.0000   1.0000   1.0000

          k =-0.0058-0.4000-0.1001 ( 39443 PWs)   bands (ev):

   -13.5750 -13.5242 -13.4497 -13.4229 -13.0101 -13.0024 -12.9299 -12.9244
   -12.8896 -12.8808 -12.8654 -12.8585 -12.8143 -12.8038 -12.7111 -12.7079
    -4.1093  -4.0850  -4.0494  -4.0435  -2.5877  -2.5787  -2.5607  -2.5312
    -2.4676  -2.4487  -2.2600  -2.2224  -2.1822  -2.0634  -1.9192  -1.9017
    -1.7275  -1.6898  -1.4375  -1.3911  -1.3509  -1.2698  -1.2055  -1.1708
    -1.1083  -1.0704  -1.0298  -0.8924  -0.8370  -0.7338  -0.7122  -0.6745
    -0.5998  -0.5431  -0.4278  -0.3753  -0.3614  -0.3115  -0.2859  -0.2282
    -0.2153  -0.1696  -0.1652  -0.1412  -0.0197  -0.0060   0.0077   0.0386

     occupation numbers 
     1.0000   1.0000   1.0000   1.0000   1.0000   1.0000   1.0000   1.0000
     1.0000   1.0000   1.0000   1.0000   1.0000   1.0000   1.0000   1.0000
     1.0000   1.0000   1.0000   1.0000   1.0000   1.0000   1.0000   1.0000
     1.0000   1.0000   1.0000   1.0000   1.0000   1.0000   1.0000   1.0000
     1.0000   1.0000   1.0000   1.0000   1.0000   1.0000   1.0000   1.0000
     1.0000   1.0000   1.0000   1.0000   1.0000   1.0000   1.0000   1.0000
     1.0000   1.0000   1.0000   1.0000   1.0000   1.0000   1.0000   1.0000
     1.0000   1.0000   1.0000   1.0000   1.0000   1.0000   1.0000   1.0000

          k =-0.0115-0.4000-0.2002 ( 39459 PWs)   bands (ev):

   -13.5612 -13.5422 -13.4401 -13.4300 -13.0048 -13.0010 -12.9290 -12.9266
   -12.8841 -12.8780 -12.8722 -12.8671 -12.8093 -12.8055 -12.7100 -12.7088
    -4.1013  -4.0918  -4.0467  -4.0440  -2.5783  -2.5735  -2.5584  -2.5422
    -2.4745  -2.4675  -2.2324  -2.2223  -2.1683  -2.1154  -1.9312  -1.9239
    -1.7258  -1.7077  -1.3585  -1.3417  -1.3101  -1.2505  -1.2100  -1.1503
    -1.1197  -1.0920  -1.0653  -0.9786  -0.8007  -0.7624  -0.7113  -0.6976
    -0.5418  -0.5147  -0.4319  -0.3969  -0.3394  -0.3052  -0.2608  -0.2556
    -0.2159  -0.1870  -0.1732  -0.1602  -0.0171  -0.0099   0.0145   0.0288

     occupation numbers 
     1.0000   1.0000   1.0000   1.0000   1.0000   1.0000   1.0000   1.0000
     1.0000   1.0000   1.0000   1.0000   1.0000   1.0000   1.0000   1.0000
     1.0000   1.0000   1.0000   1.0000   1.0000   1.0000   1.0000   1.0000
     1.0000   1.0000   1.0000   1.0000   1.0000   1.0000   1.0000   1.0000
     1.0000   1.0000   1.0000   1.0000   1.0000   1.0000   1.0000   1.0000
     1.0000   1.0000   1.0000   1.0000   1.0000   1.0000   1.0000   1.0000
     1.0000   1.0000   1.0000   1.0000   1.0000   1.0000   1.0000   1.0000
     1.0000   1.0000   1.0000   1.0000   1.0000   1.0000   1.0000   1.0000

          k =-0.1860-0.4000 0.0000 ( 39434 PWs)   bands (ev):

   -13.5575 -13.5010 -13.4450 -13.4197 -13.0135 -13.0118 -12.9739 -12.9517
   -12.9061 -12.8919 -12.8494 -12.8284 -12.8038 -12.7925 -12.7210 -12.7158
    -4.0854  -4.0615  -3.9955  -3.9773  -2.6064  -2.6034  -2.5528  -2.4624
    -2.4403  -2.4038  -2.2750  -2.2320  -2.1267  -2.0954  -1.9099  -1.8992
    -1.7358  -1.7100  -1.4873  -1.4663  -1.3420  -1.2803  -1.2250  -1.1328
    -1.0991  -1.0325  -1.0289  -0.9502  -0.8248  -0.7828  -0.7562  -0.6803
    -0.6306  -0.5628  -0.4497  -0.3969  -0.3562  -0.3349  -0.2955  -0.2799
    -0.2335  -0.1773  -0.1422  -0.1268  -0.0623  -0.0296  -0.0096   0.0269

     occupation numbers 
     1.0000   1.0000   1.0000   1.0000   1.0000   1.0000   1.0000   1.0000
     1.0000   1.0000   1.0000   1.0000   1.0000   1.0000   1.0000   1.0000
     1.0000   1.0000   1.0000   1.0000   1.0000   1.0000   1.0000   1.0000
     1.0000   1.0000   1.0000   1.0000   1.0000   1.0000   1.0000   1.0000
     1.0000   1.0000   1.0000   1.0000   1.0000   1.0000   1.0000   1.0000
     1.0000   1.0000   1.0000   1.0000   1.0000   1.0000   1.0000   1.0000
     1.0000   1.0000   1.0000   1.0000   1.0000   1.0000   1.0000   1.0000
     1.0000   1.0000   1.0000   1.0000   1.0000   1.0000   1.0000   1.0000

          k =-0.1918-0.4000-0.1001 ( 39440 PWs)   bands (ev):

   -13.5517 -13.5096 -13.4395 -13.4235 -13.0119 -13.0101 -12.9747 -12.9521
   -12.9011 -12.8901 -12.8530 -12.8390 -12.7992 -12.7911 -12.7207 -12.7158
    -4.0819  -4.0637  -3.9933  -3.9796  -2.6081  -2.5941  -2.5635  -2.4679
    -2.4511  -2.3873  -2.2922  -2.2128  -2.1034  -2.0974  -1.9211  -1.8962
    -1.7802  -1.7509  -1.4311  -1.4238  -1.3263  -1.2703  -1.2464  -1.1498
    -1.0788  -1.0554  -1.0148  -0.9826  -0.8252  -0.7810  -0.7539  -0.6902
    -0.6094  -0.5634  -0.4561  -0.3927  -0.3586  -0.3351  -0.3063  -0.2583
    -0.2419  -0.1768  -0.1339  -0.1266  -0.0683  -0.0381  -0.0039   0.0212

     occupation numbers 
     1.0000   1.0000   1.0000   1.0000   1.0000   1.0000   1.0000   1.0000
     1.0000   1.0000   1.0000   1.0000   1.0000   1.0000   1.0000   1.0000
     1.0000   1.0000   1.0000   1.0000   1.0000   1.0000   1.0000   1.0000
     1.0000   1.0000   1.0000   1.0000   1.0000   1.0000   1.0000   1.0000
     1.0000   1.0000   1.0000   1.0000   1.0000   1.0000   1.0000   1.0000
     1.0000   1.0000   1.0000   1.0000   1.0000   1.0000   1.0000   1.0000
     1.0000   1.0000   1.0000   1.0000   1.0000   1.0000   1.0000   1.0000
     1.0000   1.0000   1.0000   1.0000   1.0000   1.0000   1.0000   1.0000

          k =-0.1975-0.4000-0.2002 ( 39448 PWs)   bands (ev):

   -13.5383 -13.5254 -13.4318 -13.4304 -13.0080 -13.0057 -12.9758 -12.9569
   -12.9002 -12.8940 -12.8486 -12.8371 -12.8022 -12.7920 -12.7214 -12.7153
    -4.0808  -4.0613  -3.9966  -3.9774  -2.6039  -2.5929  -2.5617  -2.4847
    -2.4615  -2.3842  -2.2782  -2.1970  -2.1200  -2.0932  -1.9516  -1.9183
    -1.7808  -1.7479  -1.3940  -1.3656  -1.3226  -1.2610  -1.2285  -1.1897
    -1.1011  -1.0567  -1.0217  -0.9799  -0.8374  -0.7975  -0.7577  -0.6947
    -0.5672  -0.5476  -0.4552  -0.3820  -0.3642  -0.3494  -0.3193  -0.2579
    -0.2162  -0.1825  -0.1435  -0.1256  -0.0778  -0.0574   0.0014   0.0192

     occupation numbers 
     1.0000   1.0000   1.0000   1.0000   1.0000   1.0000   1.0000   1.0000
     1.0000   1.0000   1.0000   1.0000   1.0000   1.0000   1.0000   1.0000
     1.0000   1.0000   1.0000   1.0000   1.0000   1.0000   1.0000   1.0000
     1.0000   1.0000   1.0000   1.0000   1.0000   1.0000   1.0000   1.0000
     1.0000   1.0000   1.0000   1.0000   1.0000   1.0000   1.0000   1.0000
     1.0000   1.0000   1.0000   1.0000   1.0000   1.0000   1.0000   1.0000
     1.0000   1.0000   1.0000   1.0000   1.0000   1.0000   1.0000   1.0000
     1.0000   1.0000   1.0000   1.0000   1.0000   1.0000   1.0000   1.0000

          k =-0.1745-0.4000 0.2002 ( 39450 PWs)   bands (ev):

   -13.5424 -13.5202 -13.4389 -13.4243 -13.0067 -13.0052 -12.9756 -12.9596
   -12.9036 -12.8989 -12.8376 -12.8301 -12.8070 -12.7960 -12.7220 -12.7151
    -4.0836  -4.0573  -4.0003  -3.9746  -2.6051  -2.5886  -2.5632  -2.4767
    -2.4686  -2.3908  -2.2596  -2.1976  -2.1498  -2.0951  -1.9590  -1.9354
    -1.7408  -1.7143  -1.4377  -1.3538  -1.3278  -1.2727  -1.1997  -1.1918
    -1.1263  -1.0627  -1.0278  -0.9171  -0.8679  -0.8219  -0.7439  -0.6909
    -0.5769  -0.5185  -0.4474  -0.4033  -0.3646  -0.3420  -0.3069  -0.2785
    -0.2043  -0.1885  -0.1528  -0.1224  -0.0806  -0.0621  -0.0006   0.0247

     occupation numbers 
     1.0000   1.0000   1.0000   1.0000   1.0000   1.0000   1.0000   1.0000
     1.0000   1.0000   1.0000   1.0000   1.0000   1.0000   1.0000   1.0000
     1.0000   1.0000   1.0000   1.0000   1.0000   1.0000   1.0000   1.0000
     1.0000   1.0000   1.0000   1.0000   1.0000   1.0000   1.0000   1.0000
     1.0000   1.0000   1.0000   1.0000   1.0000   1.0000   1.0000   1.0000
     1.0000   1.0000   1.0000   1.0000   1.0000   1.0000   1.0000   1.0000
     1.0000   1.0000   1.0000   1.0000   1.0000   1.0000   1.0000   1.0000
     1.0000   1.0000   1.0000   1.0000   1.0000   1.0000   1.0000   1.0000

          k =-0.1802-0.4000 0.1001 ( 39425 PWs)   bands (ev):

   -13.5539 -13.5052 -13.4450 -13.4198 -13.0115 -13.0079 -12.9742 -12.9560
   -12.9072 -12.8978 -12.8374 -12.8246 -12.8083 -12.7967 -12.7218 -12.7153
    -4.0861  -4.0578  -3.9996  -3.9745  -2.6093  -2.5933  -2.5562  -2.4729
    -2.4460  -2.4030  -2.2534  -2.2268  -2.1493  -2.0981  -1.9352  -1.9219
    -1.7077  -1.6901  -1.4928  -1.4344  -1.3437  -1.2596  -1.2083  -1.1640
    -1.1175  -1.0594  -1.0128  -0.9124  -0.8455  -0.8256  -0.7398  -0.6837
    -0.6113  -0.5359  -0.4513  -0.3875  -0.3604  -0.3379  -0.3057  -0.2848
    -0.2226  -0.1693  -0.1610  -0.1242  -0.0727  -0.0439  -0.0055   0.0292

     occupation numbers 
     1.0000   1.0000   1.0000   1.0000   1.0000   1.0000   1.0000   1.0000
     1.0000   1.0000   1.0000   1.0000   1.0000   1.0000   1.0000   1.0000
     1.0000   1.0000   1.0000   1.0000   1.0000   1.0000   1.0000   1.0000
     1.0000   1.0000   1.0000   1.0000   1.0000   1.0000   1.0000   1.0000
     1.0000   1.0000   1.0000   1.0000   1.0000   1.0000   1.0000   1.0000
     1.0000   1.0000   1.0000   1.0000   1.0000   1.0000   1.0000   1.0000
     1.0000   1.0000   1.0000   1.0000   1.0000   1.0000   1.0000   1.0000
     1.0000   1.0000   1.0000   1.0000   1.0000   1.0000   1.0000   1.0000

          k =-0.3720-0.4000 0.0000 ( 39402 PWs)   bands (ev):

   -13.5043 -13.4735 -13.4328 -13.4309 -13.0385 -13.0311 -13.0012 -12.9953
   -12.9138 -12.8969 -12.8354 -12.8248 -12.7798 -12.7688 -12.7415 -12.7353
    -4.0278  -4.0193  -3.8954  -3.8834  -2.6132  -2.6037  -2.5663  -2.5040
    -2.3620  -2.3035  -2.2754  -2.2645  -2.0618  -2.0439  -1.9233  -1.8975
    -1.7800  -1.7366  -1.5532  -1.5112  -1.3290  -1.2991  -1.2658  -1.2046
    -1.0909  -1.0149  -1.0033  -0.9498  -0.8456  -0.8157  -0.7681  -0.7250
    -0.6690  -0.6331  -0.4987  -0.4333  -0.4011  -0.3693  -0.2926  -0.2714
    -0.2308  -0.2186  -0.1520  -0.1319  -0.1127  -0.0724  -0.0370   0.0073

     occupation numbers 
     1.0000   1.0000   1.0000   1.0000   1.0000   1.0000   1.0000   1.0000
     1.0000   1.0000   1.0000   1.0000   1.0000   1.0000   1.0000   1.0000
     1.0000   1.0000   1.0000   1.0000   1.0000   1.0000   1.0000   1.0000
     1.0000   1.0000   1.0000   1.0000   1.0000   1.0000   1.0000   1.0000
     1.0000   1.0000   1.0000   1.0000   1.0000   1.0000   1.0000   1.0000
     1.0000   1.0000   1.0000   1.0000   1.0000   1.0000   1.0000   1.0000
     1.0000   1.0000   1.0000   1.0000   1.0000   1.0000   1.0000   1.0000
     1.0000   1.0000   1.0000   1.0000   1.0000   1.0000   1.0000   1.0000

          k =-0.3778-0.4000-0.1001 ( 39394 PWs)   bands (ev):

   -13.4996 -13.4765 -13.4358 -13.4306 -13.0340 -13.0300 -13.0032 -12.9983
   -12.9113 -12.8986 -12.8339 -12.8243 -12.7814 -12.7689 -12.7417 -12.7356
    -4.0273  -4.0186  -3.8939  -3.8862  -2.6118  -2.6046  -2.5638  -2.5160
    -2.3610  -2.2943  -2.2848  -2.2265  -2.0790  -2.0588  -1.9172  -1.8943
    -1.7931  -1.7361  -1.5437  -1.4929  -1.3637  -1.3391  -1.2225  -1.2039
    -1.1128  -1.0386  -0.9663  -0.9051  -0.8444  -0.8202  -0.8093  -0.7347
    -0.6669  -0.6017  -0.4972  -0.4263  -0.4041  -0.3880  -0.2915  -0.2708
    -0.2149  -0.2090  -0.1680  -0.1387  -0.1055  -0.0705  -0.0339  -0.0012

     occupation numbers 
     1.0000   1.0000   1.0000   1.0000   1.0000   1.0000   1.0000   1.0000
     1.0000   1.0000   1.0000   1.0000   1.0000   1.0000   1.0000   1.0000
     1.0000   1.0000   1.0000   1.0000   1.0000   1.0000   1.0000   1.0000
     1.0000   1.0000   1.0000   1.0000   1.0000   1.0000   1.0000   1.0000
     1.0000   1.0000   1.0000   1.0000   1.0000   1.0000   1.0000   1.0000
     1.0000   1.0000   1.0000   1.0000   1.0000   1.0000   1.0000   1.0000
     1.0000   1.0000   1.0000   1.0000   1.0000   1.0000   1.0000   1.0000
     1.0000   1.0000   1.0000   1.0000   1.0000   1.0000   1.0000   1.0000

          k =-0.3835-0.4000-0.2002 ( 39385 PWs)   bands (ev):

   -13.4905 -13.4824 -13.4394 -13.4317 -13.0271 -13.0244 -13.0092 -13.0023
   -12.9127 -12.9057 -12.8267 -12.8108 -12.7886 -12.7735 -12.7426 -12.7361
    -4.0278  -4.0161  -3.8962  -3.8856  -2.6083  -2.5957  -2.5722  -2.5338
    -2.3559  -2.3119  -2.2481  -2.1792  -2.1005  -2.0905  -1.9309  -1.8943
    -1.7944  -1.7428  -1.5229  -1.4707  -1.3842  -1.3776  -1.2175  -1.1806
    -1.1282  -1.0537  -0.9611  -0.8848  -0.8432  -0.8110  -0.7814  -0.7659
    -0.6611  -0.5840  -0.4811  -0.4335  -0.4094  -0.4052  -0.2944  -0.2651
    -0.2202  -0.2040  -0.1841  -0.1505  -0.0890  -0.0633  -0.0372  -0.0029

     occupation numbers 
     1.0000   1.0000   1.0000   1.0000   1.0000   1.0000   1.0000   1.0000
     1.0000   1.0000   1.0000   1.0000   1.0000   1.0000   1.0000   1.0000
     1.0000   1.0000   1.0000   1.0000   1.0000   1.0000   1.0000   1.0000
     1.0000   1.0000   1.0000   1.0000   1.0000   1.0000   1.0000   1.0000
     1.0000   1.0000   1.0000   1.0000   1.0000   1.0000   1.0000   1.0000
     1.0000   1.0000   1.0000   1.0000   1.0000   1.0000   1.0000   1.0000
     1.0000   1.0000   1.0000   1.0000   1.0000   1.0000   1.0000   1.0000
     1.0000   1.0000   1.0000   1.0000   1.0000   1.0000   1.0000   1.0000

          k =-0.3605-0.4000 0.2002 ( 39410 PWs)   bands (ev):

   -13.4946 -13.4773 -13.4414 -13.4307 -13.0296 -13.0204 -13.0111 -13.0007
   -12.9157 -12.9088 -12.8167 -12.8115 -12.7860 -12.7805 -12.7431 -12.7360
    -4.0286  -4.0153  -3.8984  -3.8831  -2.5995  -2.5904  -2.5892  -2.5315
    -2.3480  -2.3274  -2.2356  -2.1893  -2.1000  -2.0797  -1.9419  -1.9036
    -1.7759  -1.7480  -1.5277  -1.4853  -1.3695  -1.3565  -1.2357  -1.1816
    -1.0870  -1.0752  -0.9922  -0.8942  -0.8365  -0.7984  -0.7743  -0.7474
    -0.6577  -0.5989  -0.4822  -0.4360  -0.4219  -0.3858  -0.2939  -0.2620
    -0.2477  -0.2145  -0.1755  -0.1455  -0.0785  -0.0713  -0.0401   0.0054

     occupation numbers 
     1.0000   1.0000   1.0000   1.0000   1.0000   1.0000   1.0000   1.0000
     1.0000   1.0000   1.0000   1.0000   1.0000   1.0000   1.0000   1.0000
     1.0000   1.0000   1.0000   1.0000   1.0000   1.0000   1.0000   1.0000
     1.0000   1.0000   1.0000   1.0000   1.0000   1.0000   1.0000   1.0000
     1.0000   1.0000   1.0000   1.0000   1.0000   1.0000   1.0000   1.0000
     1.0000   1.0000   1.0000   1.0000   1.0000   1.0000   1.0000   1.0000
     1.0000   1.0000   1.0000   1.0000   1.0000   1.0000   1.0000   1.0000
     1.0000   1.0000   1.0000   1.0000   1.0000   1.0000   1.0000   1.0000

          k =-0.3662-0.4000 0.1001 ( 39426 PWs)   bands (ev):

   -13.5023 -13.4727 -13.4385 -13.4290 -13.0361 -13.0272 -13.0044 -12.9958
   -12.9190 -12.9010 -12.8309 -12.8103 -12.7860 -12.7731 -12.7425 -12.7355
    -4.0287  -4.0172  -3.8978  -3.8819  -2.6067  -2.5977  -2.5795  -2.5129
    -2.3528  -2.3223  -2.2639  -2.2327  -2.0668  -2.0557  -1.9385  -1.9043
    -1.7650  -1.7484  -1.5426  -1.5072  -1.3420  -1.3124  -1.2624  -1.1885
    -1.0782  -1.0290  -1.0203  -0.9540  -0.8310  -0.7990  -0.7541  -0.7323
    -0.6599  -0.6357  -0.4980  -0.4337  -0.4026  -0.3720  -0.2984  -0.2705
    -0.2434  -0.2195  -0.1640  -0.1381  -0.0919  -0.0730  -0.0385   0.0105

     occupation numbers 
     1.0000   1.0000   1.0000   1.0000   1.0000   1.0000   1.0000   1.0000
     1.0000   1.0000   1.0000   1.0000   1.0000   1.0000   1.0000   1.0000
     1.0000   1.0000   1.0000   1.0000   1.0000   1.0000   1.0000   1.0000
     1.0000   1.0000   1.0000   1.0000   1.0000   1.0000   1.0000   1.0000
     1.0000   1.0000   1.0000   1.0000   1.0000   1.0000   1.0000   1.0000
     1.0000   1.0000   1.0000   1.0000   1.0000   1.0000   1.0000   1.0000
     1.0000   1.0000   1.0000   1.0000   1.0000   1.0000   1.0000   1.0000
     1.0000   1.0000   1.0000   1.0000   1.0000   1.0000   1.0000   1.0000

     highest occupied level (ev):     0.0844

!    total energy              =    -501.69176476 Ry
     estimated scf accuracy    <       0.00000052 Ry

     The total energy is the sum of the following terms:
     one-electron contribution =    -127.25182163 Ry
     hartree contribution      =     109.61968614 Ry
     xc contribution           =    -102.56641405 Ry
     ewald contribution        =    -381.49321522 Ry

     convergence has been achieved in   8 iterations

     Forces acting on atoms (cartesian axes, Ry/au):

     atom    1 type  1   force =    -0.00086099    0.00082742    0.00215937
     atom    2 type  1   force =     0.00086099    0.00082742   -0.00215937
     atom    3 type  1   force =     0.00086099   -0.00082742   -0.00215937
     atom    4 type  1   force =    -0.00086099   -0.00082742    0.00215937
     atom    5 type  2   force =    -0.00063717   -0.00221885    0.00226087
     atom    6 type  2   force =     0.00063717   -0.00221885   -0.00226087
     atom    7 type  2   force =     0.00063717    0.00221885   -0.00226087
     atom    8 type  2   force =    -0.00063717    0.00221885    0.00226087
     atom    9 type  3   force =    -0.00030213    0.00634787    0.01337431
     atom   10 type  3   force =     0.00030213    0.00634787   -0.01337431
     atom   11 type  3   force =     0.00030213   -0.00634787   -0.01337431
     atom   12 type  3   force =    -0.00030213   -0.00634787    0.01337431
     atom   13 type  3   force =     0.00556625   -0.01278279    0.00172453
     atom   14 type  3   force =    -0.00556625   -0.01278279   -0.00172453
     atom   15 type  3   force =    -0.00556625    0.01278279   -0.00172453
     atom   16 type  3   force =     0.00556625    0.01278279    0.00172453
     atom   17 type  3   force =     0.01109865    0.00678921   -0.00944317
     atom   18 type  3   force =    -0.01109865    0.00678921    0.00944317
     atom   19 type  3   force =    -0.01109865   -0.00678921    0.00944317
     atom   20 type  3   force =     0.01109865   -0.00678921   -0.00944317
     atom   21 type  3   force =    -0.01361083    0.00063508   -0.00741988
     atom   22 type  3   force =     0.01361083    0.00063508    0.00741988
     atom   23 type  3   force =     0.01361083   -0.00063508    0.00741988
     atom   24 type  3   force =    -0.01361083   -0.00063508   -0.00741988
     The non-local contrib.  to forces
     atom    1 type  1   force =    -0.01738940   -0.01341677   -0.00099295
     atom    2 type  1   force =     0.01738940   -0.01341677    0.00099295
     atom    3 type  1   force =     0.01738940    0.01341677    0.00099295
     atom    4 type  1   force =    -0.01738940    0.01341677   -0.00099295
     atom    5 type  2   force =     0.00087412    0.01439291   -0.03005645
     atom    6 type  2   force =    -0.00087412    0.01439291    0.03005645
     atom    7 type  2   force =    -0.00087412   -0.01439291    0.03005645
     atom    8 type  2   force =     0.00087412   -0.01439291   -0.03005645
     atom    9 type  3   force =     0.03924328   -0.13466995   -0.13736360
     atom   10 type  3   force =    -0.03924328   -0.13466995    0.13736360
     atom   11 type  3   force =    -0.03924328    0.13466995    0.13736360
     atom   12 type  3   force =     0.03924328    0.13466995   -0.13736360
     atom   13 type  3   force =    -0.01214617    0.18714926   -0.01231961
     atom   14 type  3   force =     0.01214617    0.18714926    0.01231961
     atom   15 type  3   force =     0.01214617   -0.18714926    0.01231961
     atom   16 type  3   force =    -0.01214617   -0.18714926   -0.01231961
     atom   17 type  3   force =    -0.14075249   -0.08307277    0.03608753
     atom   18 type  3   force =     0.14075249   -0.08307277   -0.03608753
     atom   19 type  3   force =     0.14075249    0.08307277   -0.03608753
     atom   20 type  3   force =    -0.14075249    0.08307277    0.03608753
     atom   21 type  3   force =     0.11356918   -0.06264719    0.14427012
     atom   22 type  3   force =    -0.11356918   -0.06264719   -0.14427012
     atom   23 type  3   force =    -0.11356918    0.06264719   -0.14427012
     atom   24 type  3   force =     0.11356918    0.06264719    0.14427012
     The ionic contribution  to forces
     atom    1 type  1   force =    -0.02423539   -0.05007099   -0.11403160
     atom    2 type  1   force =     0.02423539   -0.05007099    0.11403160
     atom    3 type  1   force =     0.02423539    0.05007099    0.11403160
     atom    4 type  1   force =    -0.02423539    0.05007099   -0.11403160
     atom    5 type  2   force =    -0.18827817    0.26150167   -0.19527978
     atom    6 type  2   force =     0.18827817    0.26150167    0.19527978
     atom    7 type  2   force =     0.18827817   -0.26150167    0.19527978
     atom    8 type  2   force =    -0.18827817   -0.26150167   -0.19527978
     atom    9 type  3   force =    -0.15118188    2.01723636    2.20437328
     atom   10 type  3   force =     0.15118188    2.01723636   -2.20437328
     atom   11 type  3   force =     0.15118188   -2.01723636   -2.20437328
     atom   12 type  3   force =    -0.15118188   -2.01723636    2.20437328
     atom   13 type  3   force =     0.32252200   -3.04795898   -0.01908978
     atom   14 type  3   force =    -0.32252200   -3.04795898    0.01908978
     atom   15 type  3   force =    -0.32252200    3.04795898    0.01908978
     atom   16 type  3   force =     0.32252200    3.04795898   -0.01908978
     atom   17 type  3   force =     1.72511832    1.44022468   -1.10806173
     atom   18 type  3   force =    -1.72511832    1.44022468    1.10806173
     atom   19 type  3   force =    -1.72511832   -1.44022468    1.10806173
     atom   20 type  3   force =     1.72511832   -1.44022468   -1.10806173
     atom   21 type  3   force =    -1.95880577    0.42461295   -1.37177756
     atom   22 type  3   force =     1.95880577    0.42461295    1.37177756
     atom   23 type  3   force =     1.95880577   -0.42461295    1.37177756
     atom   24 type  3   force =    -1.95880577   -0.42461295   -1.37177756
     The local contribution  to forces
     atom    1 type  1   force =     0.03813215    0.06229091    0.11698592
     atom    2 type  1   force =    -0.03813215    0.06229091   -0.11698592
     atom    3 type  1   force =    -0.03813215   -0.06229091   -0.11698592
     atom    4 type  1   force =     0.03813215   -0.06229091    0.11698592
     atom    5 type  2   force =     0.18676452   -0.27812457    0.22760899
     atom    6 type  2   force =    -0.18676452   -0.27812457   -0.22760899
     atom    7 type  2   force =    -0.18676452    0.27812457   -0.22760899
     atom    8 type  2   force =     0.18676452    0.27812457    0.22760899
     atom    9 type  3   force =     0.11157266   -1.87647184   -2.05403004
     atom   10 type  3   force =    -0.11157266   -1.87647184    2.05403004
     atom   11 type  3   force =    -0.11157266    1.87647184    2.05403004
     atom   12 type  3   force =     0.11157266    1.87647184   -2.05403004
     atom   13 type  3   force =    -0.30496431    2.84844182    0.03318770
     atom   14 type  3   force =     0.30496431    2.84844182   -0.03318770
     atom   15 type  3   force =     0.30496431   -2.84844182   -0.03318770
     atom   16 type  3   force =    -0.30496431   -2.84844182    0.03318770
     atom   17 type  3   force =    -1.57359648   -1.35055457    1.06279061
     atom   18 type  3   force =     1.57359648   -1.35055457   -1.06279061
     atom   19 type  3   force =     1.57359648    1.35055457   -1.06279061
     atom   20 type  3   force =    -1.57359648    1.35055457    1.06279061
     atom   21 type  3   force =     1.83199929   -0.36138331    1.22033487
     atom   22 type  3   force =    -1.83199929   -0.36138331   -1.22033487
     atom   23 type  3   force =    -1.83199929    0.36138331   -1.22033487
     atom   24 type  3   force =     1.83199929    0.36138331    1.22033487
     The core correction contribution to forces
     atom    1 type  1   force =     0.00263605    0.00202335    0.00021066
     atom    2 type  1   force =    -0.00263605    0.00202335   -0.00021066
     atom    3 type  1   force =    -0.00263605   -0.00202335   -0.00021066
     atom    4 type  1   force =     0.00263605   -0.00202335    0.00021066
     atom    5 type  2   force =     0.00000000    0.00000000    0.00000000
     atom    6 type  2   force =     0.00000000    0.00000000    0.00000000
     atom    7 type  2   force =     0.00000000    0.00000000    0.00000000
     atom    8 type  2   force =     0.00000000    0.00000000    0.00000000
     atom    9 type  3   force =     0.00000000    0.00000000    0.00000000
     atom   10 type  3   force =     0.00000000    0.00000000    0.00000000
     atom   11 type  3   force =     0.00000000    0.00000000    0.00000000
     atom   12 type  3   force =     0.00000000    0.00000000    0.00000000
     atom   13 type  3   force =     0.00000000    0.00000000    0.00000000
     atom   14 type  3   force =     0.00000000    0.00000000    0.00000000
     atom   15 type  3   force =     0.00000000    0.00000000    0.00000000
     atom   16 type  3   force =     0.00000000    0.00000000    0.00000000
     atom   17 type  3   force =     0.00000000    0.00000000    0.00000000
     atom   18 type  3   force =     0.00000000    0.00000000    0.00000000
     atom   19 type  3   force =     0.00000000    0.00000000    0.00000000
     atom   20 type  3   force =     0.00000000    0.00000000    0.00000000
     atom   21 type  3   force =     0.00000000    0.00000000    0.00000000
     atom   22 type  3   force =     0.00000000    0.00000000    0.00000000
     atom   23 type  3   force =     0.00000000    0.00000000    0.00000000
     atom   24 type  3   force =     0.00000000    0.00000000    0.00000000
     The Hubbard contrib.    to forces
     atom    1 type  1   force =     0.00000000    0.00000000    0.00000000
     atom    2 type  1   force =     0.00000000    0.00000000    0.00000000
     atom    3 type  1   force =     0.00000000    0.00000000    0.00000000
     atom    4 type  1   force =     0.00000000    0.00000000    0.00000000
     atom    5 type  2   force =     0.00000000    0.00000000    0.00000000
     atom    6 type  2   force =     0.00000000    0.00000000    0.00000000
     atom    7 type  2   force =     0.00000000    0.00000000    0.00000000
     atom    8 type  2   force =     0.00000000    0.00000000    0.00000000
     atom    9 type  3   force =     0.00000000    0.00000000    0.00000000
     atom   10 type  3   force =     0.00000000    0.00000000    0.00000000
     atom   11 type  3   force =     0.00000000    0.00000000    0.00000000
     atom   12 type  3   force =     0.00000000    0.00000000    0.00000000
     atom   13 type  3   force =     0.00000000    0.00000000    0.00000000
     atom   14 type  3   force =     0.00000000    0.00000000    0.00000000
     atom   15 type  3   force =     0.00000000    0.00000000    0.00000000
     atom   16 type  3   force =     0.00000000    0.00000000    0.00000000
     atom   17 type  3   force =     0.00000000    0.00000000    0.00000000
     atom   18 type  3   force =     0.00000000    0.00000000    0.00000000
     atom   19 type  3   force =     0.00000000    0.00000000    0.00000000
     atom   20 type  3   force =     0.00000000    0.00000000    0.00000000
     atom   21 type  3   force =     0.00000000    0.00000000    0.00000000
     atom   22 type  3   force =     0.00000000    0.00000000    0.00000000
     atom   23 type  3   force =     0.00000000    0.00000000    0.00000000
     atom   24 type  3   force =     0.00000000    0.00000000    0.00000000
     The SCF correction term to forces
     atom    1 type  1   force =    -0.00000440    0.00000092   -0.00001266
     atom    2 type  1   force =     0.00000440    0.00000092    0.00001266
     atom    3 type  1   force =     0.00000440   -0.00000092    0.00001266
     atom    4 type  1   force =    -0.00000440   -0.00000092   -0.00001266
     atom    5 type  2   force =     0.00000236    0.00001115   -0.00001189
     atom    6 type  2   force =    -0.00000236    0.00001115    0.00001189
     atom    7 type  2   force =    -0.00000236   -0.00001115    0.00001189
     atom    8 type  2   force =     0.00000236   -0.00001115   -0.00001189
     atom    9 type  3   force =     0.00006381    0.00025331    0.00039467
     atom   10 type  3   force =    -0.00006381    0.00025331   -0.00039467
     atom   11 type  3   force =    -0.00006381   -0.00025331   -0.00039467
     atom   12 type  3   force =     0.00006381   -0.00025331    0.00039467
     atom   13 type  3   force =     0.00015472   -0.00041489   -0.00005377
     atom   14 type  3   force =    -0.00015472   -0.00041489    0.00005377
     atom   15 type  3   force =    -0.00015472    0.00041489    0.00005377
     atom   16 type  3   force =     0.00015472    0.00041489   -0.00005377
     atom   17 type  3   force =     0.00032930    0.00019187   -0.00025957
     atom   18 type  3   force =    -0.00032930    0.00019187    0.00025957
     atom   19 type  3   force =    -0.00032930   -0.00019187    0.00025957
     atom   20 type  3   force =     0.00032930   -0.00019187   -0.00025957
     atom   21 type  3   force =    -0.00037353    0.00005262   -0.00024730
     atom   22 type  3   force =     0.00037353    0.00005262    0.00024730
     atom   23 type  3   force =     0.00037353   -0.00005262    0.00024730
     atom   24 type  3   force =    -0.00037353   -0.00005262   -0.00024730

     Total force =     0.061067     Total SCF correction =     0.001832


     Computing stress (Cartesian axis) and pressure

          total   stress  (Ry/bohr**3)                   (kbar)     P=       15.73
   0.00010896   0.00000000   0.00000253           16.03        0.00        0.37
   0.00000000   0.00010702   0.00000000            0.00       15.74        0.00
   0.00000253   0.00000000   0.00010479            0.37        0.00       15.41

     kinetic stress (kbar)   4575.66      0.00     -9.86
                                0.00   4622.67      0.00
                               -9.86      0.00   4580.44

     local   stress (kbar)  -6140.89     -0.00    -92.11
                               -0.00  -5378.49      0.00
                              -92.11      0.00  -5841.12

     nonloc. stress (kbar)   5729.35      0.00      1.27
                                0.00   5727.59      0.00
                                1.27      0.00   5729.22

     hartree stress (kbar)   1463.89     -0.00     24.12
                               -0.00   1226.53      0.00
                               24.12      0.00   1353.20

     exc-cor stress (kbar)  -1155.61      0.00      0.25
                                0.00  -1156.76      0.00
                                0.25      0.00  -1156.16

     corecor stress (kbar)    -20.04     -0.00     -0.02
                               -0.00    -20.03      0.00
                               -0.02      0.00    -19.85

     ewald   stress (kbar)  -4436.33      0.00     76.71
                                0.00  -5005.77     -0.00
                               76.71     -0.00  -4630.32

     hubbard stress (kbar)      0.00      0.00      0.00
                                0.00      0.00      0.00
                                0.00      0.00      0.00

     DFT-D   stress (kbar)      0.00      0.00      0.00
                                0.00      0.00      0.00
                                0.00      0.00      0.00

     XDM     stress (kbar)      0.00      0.00      0.00
                                0.00      0.00      0.00
                                0.00      0.00      0.00

     dft-nl  stress (kbar)      0.00      0.00      0.00
                                0.00      0.00      0.00
                                0.00      0.00      0.00

     TS-vdW  stress (kbar)      0.00      0.00      0.00
                                0.00      0.00      0.00
                                0.00      0.00      0.00

     MDB     stress (kbar)      0.00      0.00      0.00
                                0.00      0.00      0.00
                                0.00      0.00      0.00

     3D-RISM stress (kbar)      0.00      0.00      0.00
                                0.00      0.00      0.00
                                0.00      0.00      0.00


     Writing all to output data dir ./out/LAC.save/ :
     XML data file, charge density, pseudopotentials, collected wavefunctions

     init_run     :    506.50s CPU    510.63s WALL (       1 calls)
     electrons    :   4531.81s CPU   4569.77s WALL (       1 calls)
     forces       :     57.53s CPU     57.72s WALL (       1 calls)
     stress       :    137.68s CPU    139.12s WALL (       1 calls)

     Called by init_run:
     wfcinit      :    503.53s CPU    507.45s WALL (       1 calls)
     wfcinit:atom :      0.53s CPU      1.20s WALL (      39 calls)
     wfcinit:wfcr :    498.53s CPU    501.42s WALL (      39 calls)
     potinit      :      1.38s CPU      1.51s WALL (       1 calls)
     hinit0       :      1.14s CPU      1.17s WALL (       1 calls)

     Called by electrons:
     c_bands      :   3774.65s CPU   3793.02s WALL (       9 calls)
     sum_band     :    751.87s CPU    755.85s WALL (       9 calls)
     v_of_rho     :      4.54s CPU      4.82s WALL (       9 calls)
     v_h          :      0.41s CPU      0.44s WALL (       9 calls)
     v_xc         :      4.97s CPU      5.30s WALL (      11 calls)
     mix_rho      :      0.56s CPU      0.62s WALL (       9 calls)

     Called by c_bands:
     init_us_2    :      5.66s CPU      5.75s WALL (     819 calls)
     cegterg      :   3763.84s CPU   3781.43s WALL (     351 calls)

     Called by sum_band:
     sum_band:wei :      0.00s CPU      0.00s WALL (       9 calls)
     sum_band:loo :    751.08s CPU    754.65s WALL (       9 calls)
     sum_band:buf :      1.12s CPU      1.70s WALL (     351 calls)
     sum_band:ini :      2.39s CPU      2.45s WALL (     351 calls)

     Called by *egterg:
     cdiaghg      :      6.20s CPU      6.23s WALL (    1092 calls)
     cegterg:over :     27.78s CPU     27.90s WALL (     780 calls)
     cegterg:upda :     13.53s CPU     13.61s WALL (     780 calls)
     cegterg:last :     22.10s CPU     22.31s WALL (     741 calls)
     h_psi        :   4150.64s CPU   4170.61s WALL (    1170 calls)
     g_psi        :      3.68s CPU      3.69s WALL (     780 calls)

     Called by h_psi:
     h_psi:calbec :     36.97s CPU     37.30s WALL (    1170 calls)
     vloc_psi     :   4096.23s CPU   4115.08s WALL (    1170 calls)
     add_vuspsi   :     15.33s CPU     15.46s WALL (    1170 calls)

     General routines
     calbec       :    150.61s CPU    151.01s WALL (    1365 calls)
     fft          :      4.91s CPU      5.21s WALL (     131 calls)
     ffts         :      1.10s CPU      1.11s WALL (      18 calls)
     fftw         :   4741.62s CPU   4762.52s WALL (  163186 calls)
     interpolate  :      1.08s CPU      1.11s WALL (       9 calls)

     Parallel routines

     PWSCF        :      1h27m CPU      1h29m WALL


   This run was terminated on:   2:30:34  11Nov2024            

=------------------------------------------------------------------------------=
   JOB DONE.
=------------------------------------------------------------------------------=
