### Running on host: gra740.graham.sharcnet

     Program PWSCF v.7.3.1 starts on 10Nov2024 at 21:53:55 

     This program is part of the open-source Quantum ESPRESSO suite
     for quantum simulation of materials; please cite
         "P. Giannozzi et al., J. Phys.:Condens. Matter 21 395502 (2009);
         "P. Giannozzi et al., J. Phys.:Condens. Matter 29 465901 (2017);
         "P. Giannozzi et al., J. Chem. Phys. 152 154105 (2020);
          URL http://www.quantum-espresso.org", 
     in publications or presentations arising from this work. More details at
     http://www.quantum-espresso.org/quote

     Parallel version (MPI & OpenMP), running on       4 processor cores
     Number of MPI processes:                 4
     Threads/MPI process:                     1

     MPI processes distributed on     1 nodes
     62540 MiB available memory on the printing compute node when the environment starts

     Reading input from LAC_scf_ecutwfc-50.in

     Current dimensions of program PWSCF are:
     Max number of different atomic species (ntypx) = 10
     Max number of k-points (npk) =  40000
     Max angular momentum in pseudopotentials (lmaxx) =  4
     file Li.pbe-tm-gipaw-dc.UPF: wavefunction(s)  2S 2P 3S 3P renormalized
     WARNING: atomic wfc #  3 for atom typeAl has zero norm
     WARNING: atomic wfc #  4 for atom typeAl has zero norm
     Message from routine setup:
     using ibrav=0 with symmetry is DISCOURAGED, use correct ibrav instead

     R & G space division:  proc/nbgrp/npool/nimage =       4
     Subspace diagonalization in iterative solution of the eigenvalue problem:
     a serial algorithm will be used


     Parallelization info
     --------------------
     sticks:   dense  smooth     PW     G-vecs:    dense   smooth      PW
     Min        1940     647    176               247428    47624    6748
     Max        1941     648    177               247431    47628    6751
     Sum        7761    2589    707               989717   190501   26997

     Using Slab Decomposition



     bravais-lattice index     =            0
     lattice parameter (alat)  =      12.2889  a.u.
     unit-cell volume          =    3987.9110 (a.u.)^3
     number of atoms/cell      =           24
     number of atomic types    =            3
     number of electrons       =       128.00
     number of Kohn-Sham states=           64
     kinetic-energy cutoff     =      50.0000  Ry
     charge density cutoff     =     600.0000  Ry
     scf convergence threshold =      1.0E-06
     mixing beta               =       0.4000
     number of iterations used =            8  plain     mixing
     Exchange-correlation=  SLA  PW   PBX  PBC
                           (   1   4   3   4   0   0   0)

     celldm(1)=  12.288889  celldm(2)=   0.000000  celldm(3)=   0.000000
     celldm(4)=   0.000000  celldm(5)=   0.000000  celldm(6)=   0.000000

     crystal axes: (cart. coord. in units of alat)
               a(1) = (  -0.000000  -1.000000  -0.000000 )  
               a(2) = (  -1.075255   0.000000   0.061999 )  
               a(3) = (   0.000000   0.000000  -1.998462 )  

     reciprocal axes: (cart. coord. in units 2 pi/alat)
               b(1) = ( -0.000000 -1.000000 -0.000000 )  
               b(2) = ( -0.930012  0.000000  0.000000 )  
               b(3) = ( -0.028852  0.000000 -0.500385 )  


     PseudoPot. # 1 for Li read from file:
     /home/cgurwell/projects/rrg-ravh011/cgurwell/pseudo/Li.pbe-tm-gipaw-dc.UPF
     MD5 check sum: 258bf1e32d815cbe0990be85d5d6a6e5
     Pseudo is Norm-conserving + core correction, Zval =  1.0
     Generated by new atomic code, or converted to UPF format
     Using radial grid of 1371 points,  1 beta functions with: 
                l(1) =   0

     PseudoPot. # 2 for Al read from file:
     /home/cgurwell/projects/rrg-ravh011/cgurwell/pseudo/Al.pbe-tm-gipaw-dc.UPF
     MD5 check sum: efdf9c81b1c08458edd46fe92d869955
     Pseudo is Norm-conserving, Zval =  3.0
     Generated by new atomic code, or converted to UPF format
     Using radial grid of 1519 points,  2 beta functions with: 
                l(1) =   0
                l(2) =   1

     PseudoPot. # 3 for Cl read from file:
     /home/cgurwell/projects/rrg-ravh011/cgurwell/pseudo/Cl.pbe-tm-gipaw.UPF
     MD5 check sum: 6263502ce953d769893a136fffc16e2a
     Pseudo is Norm-conserving, Zval =  7.0
     Generated by new atomic code, or converted to UPF format
     Using radial grid of 1157 points,  2 beta functions with: 
                l(1) =   0
                l(2) =   1

     atomic species   valence    mass     pseudopotential
     Li                1.00     6.94100     Li( 1.00)
     Al                3.00    26.98154     Al( 1.00)
     Cl                7.00    35.45300     Cl( 1.00)

      4 Sym. Ops., with inversion, found ( 2 have fractional translation)


                                    s                        frac. trans.

      isym =  1     identity                                     

 cryst.   s( 1) = (     1          0          0      )
                  (     0          1          0      )
                  (     0          0          1      )

 cart.    s( 1) = (  1.0000000  0.0000000  0.0000000 )
                  (  0.0000000  1.0000000  0.0000000 )
                  (  0.0000000  0.0000000  1.0000000 )


      isym =  2     180 deg rotation - cart. axis [0,1,0]        

 cryst.   s( 2) = (     1          0          0      )    f =( -0.5000000 )
                  (     0         -1          0      )       (  0.0000000 )
                  (     0          0         -1      )       (  0.5000000 )

 cart.    s( 2) = ( -1.0000000  0.0000000  0.0000000 )    f =(  0.0000000 )
                  (  0.0000000  1.0000000  0.0000000 )       (  0.5000000 )
                  ( -0.0000000  0.0000000 -1.0000000 )       ( -0.9992311 )


      isym =  3     inversion                                    

 cryst.   s( 3) = (    -1          0          0      )
                  (     0         -1          0      )
                  (     0          0         -1      )

 cart.    s( 3) = ( -1.0000000  0.0000000  0.0000000 )
                  (  0.0000000 -1.0000000  0.0000000 )
                  ( -0.0000000  0.0000000 -1.0000000 )


      isym =  4     inv. 180 deg rotation - cart. axis [0,1,0]   

 cryst.   s( 4) = (    -1          0          0      )    f =(  0.5000000 )
                  (     0          1          0      )       (  0.0000000 )
                  (     0          0          1      )       ( -0.5000000 )

 cart.    s( 4) = (  1.0000000  0.0000000  0.0000000 )    f =( -0.0000000 )
                  (  0.0000000 -1.0000000  0.0000000 )       ( -0.5000000 )
                  (  0.0000000  0.0000000  1.0000000 )       (  0.9992311 )


   Cartesian axes

     site n.     atom                  positions (alat units)
         1        Li     tau(   1) = (  -0.9056877  -0.4850000  -0.2183702  )
         2        Li     tau(   2) = (  -0.1695678  -0.9850000  -0.7188621  )
         3        Li     tau(   3) = (  -0.1695678  -0.5150000  -1.7180932  )
         4        Li     tau(   4) = (  -0.9056877  -0.0150000  -1.2176013  )
         5        Al     tau(   5) = (  -0.3162326  -0.8217000  -1.1827820  )
         6        Al     tau(   6) = (  -0.7590228  -0.3217000  -1.7529125  )
         7        Al     tau(   7) = (  -0.7590228  -0.1783000  -0.7536814  )
         8        Al     tau(   8) = (  -0.3162326  -0.6783000  -0.1835509  )
         9        Cl     tau(   9) = (  -0.3292432  -0.6832000  -0.8869788  )
        10        Cl     tau(  10) = (  -0.7460122  -0.1832000  -0.0502534  )
        11        Cl     tau(  11) = (  -0.7460122  -0.3168000  -1.0494846  )
        12        Cl     tau(  12) = (  -0.3292432  -0.8168000  -1.8862100  )
        13        Cl     tau(  13) = (  -0.2058039  -0.1281000  -1.1300747  )
        14        Cl     tau(  14) = (  -0.8694515  -0.6281000  -1.8056198  )
        15        Cl     tau(  15) = (  -0.8694515  -0.8719000  -0.8063887  )
        16        Cl     tau(  16) = (  -0.2058039  -0.3719000  -0.1308436  )
        17        Cl     tau(  17) = (  -0.0801065  -0.6812000  -1.3666060  )
        18        Cl     tau(  18) = (  -0.9951489  -0.1812000  -1.5690886  )
        19        Cl     tau(  19) = (  -0.9951489  -0.3188000  -0.5698574  )
        20        Cl     tau(  20) = (  -0.0801065  -0.8188000  -0.3673748  )
        21        Cl     tau(  21) = (  -0.6024656  -0.8140000  -1.3383055  )
        22        Cl     tau(  22) = (  -0.4727898  -0.3140000  -1.5973890  )
        23        Cl     tau(  23) = (  -0.4727898  -0.1860000  -0.5981579  )
        24        Cl     tau(  24) = (  -0.6024656  -0.6860000  -0.3390744  )

   Crystallographic axes

     site n.     atom                  positions (cryst. coord.)
         1        Li     tau(   1) = (  0.4850000  0.8423000  0.1354000  )
         2        Li     tau(   2) = (  0.9850000  0.1577000  0.3646000  )
         3        Li     tau(   3) = (  0.5150000  0.1577000  0.8646000  )
         4        Li     tau(   4) = (  0.0150000  0.8423000  0.6354000  )
         5        Al     tau(   5) = (  0.8217000  0.2941000  0.6009700  )
         6        Al     tau(   6) = (  0.3217000  0.7059000  0.8990300  )
         7        Al     tau(   7) = (  0.1783000  0.7059000  0.3990300  )
         8        Al     tau(   8) = (  0.6783000  0.2941000  0.1009700  )
         9        Cl     tau(   9) = (  0.6832000  0.3062000  0.4533300  )
        10        Cl     tau(  10) = (  0.1832000  0.6938000  0.0466700  )
        11        Cl     tau(  11) = (  0.3168000  0.6938000  0.5466700  )
        12        Cl     tau(  12) = (  0.8168000  0.3062000  0.9533300  )
        13        Cl     tau(  13) = (  0.1281000  0.1914000  0.5714100  )
        14        Cl     tau(  14) = (  0.6281000  0.8086000  0.9285900  )
        15        Cl     tau(  15) = (  0.8719000  0.8086000  0.4285900  )
        16        Cl     tau(  16) = (  0.3719000  0.1914000  0.0714100  )
        17        Cl     tau(  17) = (  0.6812000  0.0745000  0.6861400  )
        18        Cl     tau(  18) = (  0.1812000  0.9255000  0.8138600  )
        19        Cl     tau(  19) = (  0.3188000  0.9255000  0.3138600  )
        20        Cl     tau(  20) = (  0.8188000  0.0745000  0.1861400  )
        21        Cl     tau(  21) = (  0.8140000  0.5603000  0.6870500  )
        22        Cl     tau(  22) = (  0.3140000  0.4397000  0.8129500  )
        23        Cl     tau(  23) = (  0.1860000  0.4397000  0.3129500  )
        24        Cl     tau(  24) = (  0.6860000  0.5603000  0.1870500  )

     number of k points=    39
                       cart. coord. in units 2pi/alat
        k(    1) = (  -0.0000000   0.0000000   0.0000000), wk =   0.0160000
        k(    2) = (  -0.0057704   0.0000000  -0.1000769), wk =   0.0320000
        k(    3) = (  -0.0115408   0.0000000  -0.2001539), wk =   0.0320000
        k(    4) = (  -0.1860023   0.0000000   0.0000000), wk =   0.0320000
        k(    5) = (  -0.1917727   0.0000000  -0.1000769), wk =   0.0320000
        k(    6) = (  -0.1975431   0.0000000  -0.2001539), wk =   0.0320000
        k(    7) = (  -0.1744615   0.0000000   0.2001539), wk =   0.0320000
        k(    8) = (  -0.1802319   0.0000000   0.1000769), wk =   0.0320000
        k(    9) = (  -0.3720046   0.0000000   0.0000000), wk =   0.0320000
        k(   10) = (  -0.3777750   0.0000000  -0.1000769), wk =   0.0320000
        k(   11) = (  -0.3835454   0.0000000  -0.2001539), wk =   0.0320000
        k(   12) = (  -0.3604638   0.0000000   0.2001539), wk =   0.0320000
        k(   13) = (  -0.3662342   0.0000000   0.1000769), wk =   0.0320000
        k(   14) = (  -0.0000000  -0.2000000   0.0000000), wk =   0.0320000
        k(   15) = (  -0.0057704  -0.2000000  -0.1000769), wk =   0.0640000
        k(   16) = (  -0.0115408  -0.2000000  -0.2001539), wk =   0.0640000
        k(   17) = (  -0.1860023  -0.2000000   0.0000000), wk =   0.0640000
        k(   18) = (  -0.1917727  -0.2000000  -0.1000769), wk =   0.0640000
        k(   19) = (  -0.1975431  -0.2000000  -0.2001539), wk =   0.0640000
        k(   20) = (  -0.1744615  -0.2000000   0.2001539), wk =   0.0640000
        k(   21) = (  -0.1802319  -0.2000000   0.1000769), wk =   0.0640000
        k(   22) = (  -0.3720046  -0.2000000   0.0000000), wk =   0.0640000
        k(   23) = (  -0.3777750  -0.2000000  -0.1000769), wk =   0.0640000
        k(   24) = (  -0.3835454  -0.2000000  -0.2001539), wk =   0.0640000
        k(   25) = (  -0.3604638  -0.2000000   0.2001539), wk =   0.0640000
        k(   26) = (  -0.3662342  -0.2000000   0.1000769), wk =   0.0640000
        k(   27) = (  -0.0000000  -0.4000000   0.0000000), wk =   0.0320000
        k(   28) = (  -0.0057704  -0.4000000  -0.1000769), wk =   0.0640000
        k(   29) = (  -0.0115408  -0.4000000  -0.2001539), wk =   0.0640000
        k(   30) = (  -0.1860023  -0.4000000   0.0000000), wk =   0.0640000
        k(   31) = (  -0.1917727  -0.4000000  -0.1000769), wk =   0.0640000
        k(   32) = (  -0.1975431  -0.4000000  -0.2001539), wk =   0.0640000
        k(   33) = (  -0.1744615  -0.4000000   0.2001539), wk =   0.0640000
        k(   34) = (  -0.1802319  -0.4000000   0.1000769), wk =   0.0640000
        k(   35) = (  -0.3720046  -0.4000000   0.0000000), wk =   0.0640000
        k(   36) = (  -0.3777750  -0.4000000  -0.1000769), wk =   0.0640000
        k(   37) = (  -0.3835454  -0.4000000  -0.2001539), wk =   0.0640000
        k(   38) = (  -0.3604638  -0.4000000   0.2001539), wk =   0.0640000
        k(   39) = (  -0.3662342  -0.4000000   0.1000769), wk =   0.0640000

                       cryst. coord.
        k(    1) = (   0.0000000   0.0000000   0.0000000), wk =   0.0160000
        k(    2) = (   0.0000000  -0.0000000   0.2000000), wk =   0.0320000
        k(    3) = (   0.0000000  -0.0000000   0.4000000), wk =   0.0320000
        k(    4) = (   0.0000000   0.2000000   0.0000000), wk =   0.0320000
        k(    5) = (   0.0000000   0.2000000   0.2000000), wk =   0.0320000
        k(    6) = (   0.0000000   0.2000000   0.4000000), wk =   0.0320000
        k(    7) = (   0.0000000   0.2000000  -0.4000000), wk =   0.0320000
        k(    8) = (   0.0000000   0.2000000  -0.2000000), wk =   0.0320000
        k(    9) = (   0.0000000   0.4000000   0.0000000), wk =   0.0320000
        k(   10) = (   0.0000000   0.4000000   0.2000000), wk =   0.0320000
        k(   11) = (   0.0000000   0.4000000   0.4000000), wk =   0.0320000
        k(   12) = (   0.0000000   0.4000000  -0.4000000), wk =   0.0320000
        k(   13) = (   0.0000000   0.4000000  -0.2000000), wk =   0.0320000
        k(   14) = (   0.2000000   0.0000000  -0.0000000), wk =   0.0320000
        k(   15) = (   0.2000000  -0.0000000   0.2000000), wk =   0.0640000
        k(   16) = (   0.2000000  -0.0000000   0.4000000), wk =   0.0640000
        k(   17) = (   0.2000000   0.2000000  -0.0000000), wk =   0.0640000
        k(   18) = (   0.2000000   0.2000000   0.2000000), wk =   0.0640000
        k(   19) = (   0.2000000   0.2000000   0.4000000), wk =   0.0640000
        k(   20) = (   0.2000000   0.2000000  -0.4000000), wk =   0.0640000
        k(   21) = (   0.2000000   0.2000000  -0.2000000), wk =   0.0640000
        k(   22) = (   0.2000000   0.4000000  -0.0000000), wk =   0.0640000
        k(   23) = (   0.2000000   0.4000000   0.2000000), wk =   0.0640000
        k(   24) = (   0.2000000   0.4000000   0.4000000), wk =   0.0640000
        k(   25) = (   0.2000000   0.4000000  -0.4000000), wk =   0.0640000
        k(   26) = (   0.2000000   0.4000000  -0.2000000), wk =   0.0640000
        k(   27) = (   0.4000000   0.0000000  -0.0000000), wk =   0.0320000
        k(   28) = (   0.4000000  -0.0000000   0.2000000), wk =   0.0640000
        k(   29) = (   0.4000000  -0.0000000   0.4000000), wk =   0.0640000
        k(   30) = (   0.4000000   0.2000000  -0.0000000), wk =   0.0640000
        k(   31) = (   0.4000000   0.2000000   0.2000000), wk =   0.0640000
        k(   32) = (   0.4000000   0.2000000   0.4000000), wk =   0.0640000
        k(   33) = (   0.4000000   0.2000000  -0.4000000), wk =   0.0640000
        k(   34) = (   0.4000000   0.2000000  -0.2000000), wk =   0.0640000
        k(   35) = (   0.4000000   0.4000000  -0.0000000), wk =   0.0640000
        k(   36) = (   0.4000000   0.4000000   0.2000000), wk =   0.0640000
        k(   37) = (   0.4000000   0.4000000   0.4000000), wk =   0.0640000
        k(   38) = (   0.4000000   0.4000000  -0.4000000), wk =   0.0640000
        k(   39) = (   0.4000000   0.4000000  -0.2000000), wk =   0.0640000

     Dense  grid:   989717 G-vectors     FFT dimensions: (  96, 108, 192)

     Smooth grid:   190501 G-vectors     FFT dimensions: (  60,  60, 120)

     Dynamical RAM for                 wfc:       5.81 MB

     Dynamical RAM for     wfc (w. buffer):     232.50 MB

     Dynamical RAM for           str. fact:      11.33 MB

     Dynamical RAM for           local pot:       0.00 MB

     Dynamical RAM for          nlocal pot:       7.63 MB

     Dynamical RAM for                qrad:       0.51 MB

     Dynamical RAM for          rho,v,vnew:      22.72 MB

     Dynamical RAM for               rhoin:       7.57 MB

     Dynamical RAM for            rho*nmix:      60.41 MB

     Dynamical RAM for           G-vectors:      14.52 MB

     Dynamical RAM for          h,s,v(r/c):       0.75 MB

     Dynamical RAM for          <psi|beta>:       0.08 MB

     Dynamical RAM for                 psi:      11.62 MB

     Dynamical RAM for                hpsi:      11.62 MB

     Dynamical RAM for      wfcinit/wfcrot:      39.54 MB

     Estimated static dynamical RAM per process >     330.86 MB

     Estimated max dynamical RAM per process >     430.80 MB

     Estimated total dynamical RAM >       1.68 GB

     Initial potential from superposition of free atoms

     starting charge     117.3963, renormalised to     128.0000
     Starting wfcs are  212 randomized atomic wfcs

     total cpu time spent up to now is      487.5 secs

     Self-consistent Calculation

     iteration #  1     ecut=    50.00 Ry     beta= 0.40
     Davidson diagonalization with overlap

---- Real-time Memory Report at c_bands before calling an iterative solver
           536 MiB given to the printing process from OS
             0 MiB allocation reported by mallinfo(arena+hblkhd)
         59756 MiB available memory on the node where the printing process lives
------------------
     ethr =  1.00E-02,  avg # of iterations =  2.0

     Threshold (ethr) on eigenvalues was too large:
     Diagonalizing with lowered threshold

     Davidson diagonalization with overlap

---- Real-time Memory Report at c_bands before calling an iterative solver
           536 MiB given to the printing process from OS
             0 MiB allocation reported by mallinfo(arena+hblkhd)
         58351 MiB available memory on the node where the printing process lives
------------------
     ethr =  2.33E-04,  avg # of iterations =  3.0

     total cpu time spent up to now is     1405.7 secs

     total energy              =    -501.57866802 Ry
     estimated scf accuracy    <       0.34827453 Ry

     iteration #  2     ecut=    50.00 Ry     beta= 0.40
     Davidson diagonalization with overlap

---- Real-time Memory Report at c_bands before calling an iterative solver
           586 MiB given to the printing process from OS
             0 MiB allocation reported by mallinfo(arena+hblkhd)
         58201 MiB available memory on the node where the printing process lives
------------------
     ethr =  2.72E-04,  avg # of iterations =  1.0

     total cpu time spent up to now is     1773.2 secs

     total energy              =    -501.59480783 Ry
     estimated scf accuracy    <       0.08925216 Ry

     iteration #  3     ecut=    50.00 Ry     beta= 0.40
     Davidson diagonalization with overlap

---- Real-time Memory Report at c_bands before calling an iterative solver
           588 MiB given to the printing process from OS
             0 MiB allocation reported by mallinfo(arena+hblkhd)
         58201 MiB available memory on the node where the printing process lives
------------------
     ethr =  6.97E-05,  avg # of iterations =  2.0

     total cpu time spent up to now is     2253.8 secs

     total energy              =    -501.60448628 Ry
     estimated scf accuracy    <       0.01184534 Ry

     iteration #  4     ecut=    50.00 Ry     beta= 0.40
     Davidson diagonalization with overlap

---- Real-time Memory Report at c_bands before calling an iterative solver
           590 MiB given to the printing process from OS
             0 MiB allocation reported by mallinfo(arena+hblkhd)
         58220 MiB available memory on the node where the printing process lives
------------------
     ethr =  9.25E-06,  avg # of iterations =  2.0

     total cpu time spent up to now is     2756.6 secs

     total energy              =    -501.60718436 Ry
     estimated scf accuracy    <       0.00459545 Ry

     iteration #  5     ecut=    50.00 Ry     beta= 0.40
     Davidson diagonalization with overlap

---- Real-time Memory Report at c_bands before calling an iterative solver
           591 MiB given to the printing process from OS
             0 MiB allocation reported by mallinfo(arena+hblkhd)
         58303 MiB available memory on the node where the printing process lives
------------------
     ethr =  3.59E-06,  avg # of iterations =  2.0

     total cpu time spent up to now is     3195.9 secs

     total energy              =    -501.60744320 Ry
     estimated scf accuracy    <       0.00043850 Ry

     iteration #  6     ecut=    50.00 Ry     beta= 0.40
     Davidson diagonalization with overlap

---- Real-time Memory Report at c_bands before calling an iterative solver
           593 MiB given to the printing process from OS
             0 MiB allocation reported by mallinfo(arena+hblkhd)
         58362 MiB available memory on the node where the printing process lives
------------------
     ethr =  3.43E-07,  avg # of iterations =  3.0

     total cpu time spent up to now is     3784.8 secs

     total energy              =    -501.60763979 Ry
     estimated scf accuracy    <       0.00041806 Ry

     iteration #  7     ecut=    50.00 Ry     beta= 0.40
     Davidson diagonalization with overlap

---- Real-time Memory Report at c_bands before calling an iterative solver
           594 MiB given to the printing process from OS
             0 MiB allocation reported by mallinfo(arena+hblkhd)
         63747 MiB available memory on the node where the printing process lives
------------------
     ethr =  3.27E-07,  avg # of iterations =  2.0

     total cpu time spent up to now is     4256.3 secs

     total energy              =    -501.60767987 Ry
     estimated scf accuracy    <       0.00002517 Ry

     iteration #  8     ecut=    50.00 Ry     beta= 0.40
     Davidson diagonalization with overlap

---- Real-time Memory Report at c_bands before calling an iterative solver
           596 MiB given to the printing process from OS
             0 MiB allocation reported by mallinfo(arena+hblkhd)
         64477 MiB available memory on the node where the printing process lives
------------------
     ethr =  1.97E-08,  avg # of iterations =  3.0

     total cpu time spent up to now is     4845.5 secs

     End of self-consistent calculation

          k =-0.0000 0.0000 0.0000 ( 23781 PWs)   bands (ev):

   -13.6602 -13.4989 -13.4815 -13.3445 -12.9626 -12.9608 -12.9121 -12.8744
   -12.8724 -12.8671 -12.8401 -12.8382 -12.7534 -12.7420 -12.6949 -12.6838
    -4.1255  -4.0784  -4.0640  -4.0187  -2.7998  -2.7442  -2.5022  -2.4455
    -2.3800  -2.3711  -2.3237  -2.1918  -2.1443  -2.1348  -2.1013  -1.9321
    -1.6518  -1.5383  -1.5310  -1.4625  -1.3505  -1.3223  -1.2563  -1.2012
    -1.1702  -1.0929  -0.9565  -0.9308  -0.8796  -0.7788  -0.6880  -0.6748
    -0.5360  -0.5344  -0.5283  -0.3762  -0.3603  -0.3410  -0.3366  -0.2611
    -0.1458  -0.1282  -0.0610  -0.0326  -0.0242   0.0350   0.0388   0.0505

     occupation numbers 
     1.0000   1.0000   1.0000   1.0000   1.0000   1.0000   1.0000   1.0000
     1.0000   1.0000   1.0000   1.0000   1.0000   1.0000   1.0000   1.0000
     1.0000   1.0000   1.0000   1.0000   1.0000   1.0000   1.0000   1.0000
     1.0000   1.0000   1.0000   1.0000   1.0000   1.0000   1.0000   1.0000
     1.0000   1.0000   1.0000   1.0000   1.0000   1.0000   1.0000   1.0000
     1.0000   1.0000   1.0000   1.0000   1.0000   1.0000   1.0000   1.0000
     1.0000   1.0000   1.0000   1.0000   1.0000   1.0000   1.0000   1.0000
     1.0000   1.0000   1.0000   1.0000   1.0000   1.0000   1.0000   1.0000

          k =-0.0058 0.0000-0.1001 ( 23802 PWs)   bands (ev):

   -13.6518 -13.5433 -13.4390 -13.3497 -12.9636 -12.9627 -12.9091 -12.8806
   -12.8722 -12.8634 -12.8401 -12.8385 -12.7527 -12.7434 -12.6933 -12.6844
    -4.1235  -4.0912  -4.0508  -4.0197  -2.7942  -2.7496  -2.4957  -2.4324
    -2.3759  -2.3759  -2.3450  -2.2028  -2.1863  -2.0880  -2.0756  -1.9511
    -1.6747  -1.5922  -1.5069  -1.4655  -1.3463  -1.3395  -1.2402  -1.1744
    -1.1719  -1.0224  -0.9661  -0.9069  -0.8822  -0.8046  -0.6928  -0.6524
    -0.6006  -0.5459  -0.4449  -0.4008  -0.3768  -0.3399  -0.3014  -0.2653
    -0.1507  -0.1407  -0.0681  -0.0380  -0.0255   0.0188   0.0409   0.0464

     occupation numbers 
     1.0000   1.0000   1.0000   1.0000   1.0000   1.0000   1.0000   1.0000
     1.0000   1.0000   1.0000   1.0000   1.0000   1.0000   1.0000   1.0000
     1.0000   1.0000   1.0000   1.0000   1.0000   1.0000   1.0000   1.0000
     1.0000   1.0000   1.0000   1.0000   1.0000   1.0000   1.0000   1.0000
     1.0000   1.0000   1.0000   1.0000   1.0000   1.0000   1.0000   1.0000
     1.0000   1.0000   1.0000   1.0000   1.0000   1.0000   1.0000   1.0000
     1.0000   1.0000   1.0000   1.0000   1.0000   1.0000   1.0000   1.0000
     1.0000   1.0000   1.0000   1.0000   1.0000   1.0000   1.0000   1.0000

          k =-0.0115 0.0000-0.2002 ( 23828 PWs)   bands (ev):

   -13.6280 -13.5904 -13.3968 -13.3667 -12.9653 -12.9652 -12.9018 -12.8920
   -12.8671 -12.8631 -12.8400 -12.8393 -12.7502 -12.7467 -12.6898 -12.6865
    -4.1173  -4.1063  -4.0350  -4.0244  -2.7802  -2.7634  -2.4725  -2.4313
    -2.3835  -2.3695  -2.3446  -2.2891  -2.1445  -2.0890  -2.0205  -1.9814
    -1.7007  -1.6736  -1.4679  -1.4590  -1.3597  -1.3530  -1.2166  -1.1912
    -1.1080  -1.0371  -0.9023  -0.8521  -0.8400  -0.8170  -0.7640  -0.6902
    -0.5662  -0.5146  -0.4545  -0.4465  -0.3513  -0.3186  -0.2970  -0.2741
    -0.1633  -0.1490  -0.0689  -0.0604  -0.0209  -0.0036   0.0377   0.0387

     occupation numbers 
     1.0000   1.0000   1.0000   1.0000   1.0000   1.0000   1.0000   1.0000
     1.0000   1.0000   1.0000   1.0000   1.0000   1.0000   1.0000   1.0000
     1.0000   1.0000   1.0000   1.0000   1.0000   1.0000   1.0000   1.0000
     1.0000   1.0000   1.0000   1.0000   1.0000   1.0000   1.0000   1.0000
     1.0000   1.0000   1.0000   1.0000   1.0000   1.0000   1.0000   1.0000
     1.0000   1.0000   1.0000   1.0000   1.0000   1.0000   1.0000   1.0000
     1.0000   1.0000   1.0000   1.0000   1.0000   1.0000   1.0000   1.0000
     1.0000   1.0000   1.0000   1.0000   1.0000   1.0000   1.0000   1.0000

          k =-0.1860 0.0000 0.0000 ( 23803 PWs)   bands (ev):

   -13.6299 -13.4858 -13.4677 -13.3678 -12.9778 -12.9754 -12.9313 -12.9078
   -12.9043 -12.8575 -12.8181 -12.8018 -12.7469 -12.7384 -12.6989 -12.6906
    -4.0893  -4.0476  -4.0160  -3.9919  -2.7719  -2.7107  -2.5351  -2.5054
    -2.3548  -2.2880  -2.2540  -2.2072  -2.1717  -2.1215  -2.0683  -1.9817
    -1.7170  -1.5387  -1.4780  -1.4613  -1.4153  -1.3393  -1.2917  -1.1846
    -1.1178  -1.0915  -0.9886  -0.9056  -0.8115  -0.8085  -0.7078  -0.6560
    -0.6381  -0.5171  -0.5030  -0.4295  -0.3767  -0.3447  -0.3331  -0.3115
    -0.1982  -0.1620  -0.1166  -0.0963  -0.0718  -0.0116   0.0645   0.0648

     occupation numbers 
     1.0000   1.0000   1.0000   1.0000   1.0000   1.0000   1.0000   1.0000
     1.0000   1.0000   1.0000   1.0000   1.0000   1.0000   1.0000   1.0000
     1.0000   1.0000   1.0000   1.0000   1.0000   1.0000   1.0000   1.0000
     1.0000   1.0000   1.0000   1.0000   1.0000   1.0000   1.0000   1.0000
     1.0000   1.0000   1.0000   1.0000   1.0000   1.0000   1.0000   1.0000
     1.0000   1.0000   1.0000   1.0000   1.0000   1.0000   1.0000   1.0000
     1.0000   1.0000   1.0000   1.0000   1.0000   1.0000   1.0000   1.0000
     1.0000   1.0000   1.0000   1.0000   1.0000   1.0000   1.0000   1.0000

          k =-0.1918 0.0000-0.1001 ( 23793 PWs)   bands (ev):

   -13.6207 -13.5273 -13.4306 -13.3710 -12.9835 -12.9611 -12.9331 -12.9158
   -12.9107 -12.8527 -12.8182 -12.7997 -12.7455 -12.7417 -12.6948 -12.6931
    -4.0933  -4.0343  -4.0288  -3.9871  -2.7705  -2.7140  -2.5457  -2.4745
    -2.3754  -2.2809  -2.2726  -2.1784  -2.1562  -2.1253  -2.0795  -2.0273
    -1.7220  -1.5235  -1.4773  -1.4567  -1.3706  -1.3648  -1.3073  -1.2120
    -1.1022  -1.0514  -0.9431  -0.8645  -0.8323  -0.8076  -0.7304  -0.7288
    -0.6791  -0.5190  -0.4666  -0.3860  -0.3632  -0.3620  -0.3376  -0.3363
    -0.1912  -0.1637  -0.1267  -0.0901  -0.0597  -0.0143   0.0605   0.0636

     occupation numbers 
     1.0000   1.0000   1.0000   1.0000   1.0000   1.0000   1.0000   1.0000
     1.0000   1.0000   1.0000   1.0000   1.0000   1.0000   1.0000   1.0000
     1.0000   1.0000   1.0000   1.0000   1.0000   1.0000   1.0000   1.0000
     1.0000   1.0000   1.0000   1.0000   1.0000   1.0000   1.0000   1.0000
     1.0000   1.0000   1.0000   1.0000   1.0000   1.0000   1.0000   1.0000
     1.0000   1.0000   1.0000   1.0000   1.0000   1.0000   1.0000   1.0000
     1.0000   1.0000   1.0000   1.0000   1.0000   1.0000   1.0000   1.0000
     1.0000   1.0000   1.0000   1.0000   1.0000   1.0000   1.0000   1.0000

          k =-0.1975 0.0000-0.2002 ( 23772 PWs)   bands (ev):

   -13.5971 -13.5693 -13.3995 -13.3820 -12.9917 -12.9555 -12.9233 -12.9178
   -12.9117 -12.8587 -12.8174 -12.8033 -12.7428 -12.7405 -12.6994 -12.6886
    -4.0909  -4.0521  -4.0135  -3.9853  -2.7600  -2.7287  -2.5349  -2.4304
    -2.3872  -2.2982  -2.2850  -2.2080  -2.1426  -2.1117  -2.0841  -2.0507
    -1.7192  -1.5987  -1.5087  -1.4630  -1.3849  -1.2961  -1.2597  -1.2000
    -1.0932  -0.9708  -0.9280  -0.8586  -0.8356  -0.8063  -0.7742  -0.7002
    -0.6873  -0.5596  -0.4875  -0.3842  -0.3831  -0.3480  -0.3309  -0.2992
    -0.2102  -0.1952  -0.1106  -0.0862  -0.0623  -0.0341   0.0563   0.0680

     occupation numbers 
     1.0000   1.0000   1.0000   1.0000   1.0000   1.0000   1.0000   1.0000
     1.0000   1.0000   1.0000   1.0000   1.0000   1.0000   1.0000   1.0000
     1.0000   1.0000   1.0000   1.0000   1.0000   1.0000   1.0000   1.0000
     1.0000   1.0000   1.0000   1.0000   1.0000   1.0000   1.0000   1.0000
     1.0000   1.0000   1.0000   1.0000   1.0000   1.0000   1.0000   1.0000
     1.0000   1.0000   1.0000   1.0000   1.0000   1.0000   1.0000   1.0000
     1.0000   1.0000   1.0000   1.0000   1.0000   1.0000   1.0000   1.0000
     1.0000   1.0000   1.0000   1.0000   1.0000   1.0000   1.0000   1.0000

          k =-0.1745 0.0000 0.2002 ( 23826 PWs)   bands (ev):

   -13.6030 -13.5618 -13.4039 -13.3799 -12.9959 -12.9609 -12.9230 -12.9118
   -12.8932 -12.8740 -12.8140 -12.8101 -12.7439 -12.7358 -12.7032 -12.6868
    -4.0816  -4.0678  -4.0034  -3.9895  -2.7475  -2.7421  -2.5216  -2.4504
    -2.3376  -2.3056  -2.2977  -2.2376  -2.1893  -2.0865  -2.0576  -2.0315
    -1.6984  -1.6620  -1.5320  -1.4655  -1.4036  -1.2706  -1.2069  -1.1692
    -1.1035  -1.0166  -0.9348  -0.8772  -0.8663  -0.7992  -0.7159  -0.6504
    -0.5979  -0.5904  -0.5511  -0.4448  -0.3650  -0.3482  -0.3033  -0.3020
    -0.2168  -0.1855  -0.1135  -0.0928  -0.0690  -0.0488   0.0530   0.0779

     occupation numbers 
     1.0000   1.0000   1.0000   1.0000   1.0000   1.0000   1.0000   1.0000
     1.0000   1.0000   1.0000   1.0000   1.0000   1.0000   1.0000   1.0000
     1.0000   1.0000   1.0000   1.0000   1.0000   1.0000   1.0000   1.0000
     1.0000   1.0000   1.0000   1.0000   1.0000   1.0000   1.0000   1.0000
     1.0000   1.0000   1.0000   1.0000   1.0000   1.0000   1.0000   1.0000
     1.0000   1.0000   1.0000   1.0000   1.0000   1.0000   1.0000   1.0000
     1.0000   1.0000   1.0000   1.0000   1.0000   1.0000   1.0000   1.0000
     1.0000   1.0000   1.0000   1.0000   1.0000   1.0000   1.0000   1.0000

          k =-0.1802 0.0000 0.1001 ( 23823 PWs)   bands (ev):

   -13.6237 -13.5188 -13.4374 -13.3703 -12.9914 -12.9680 -12.9271 -12.9043
   -12.8923 -12.8722 -12.8160 -12.8080 -12.7455 -12.7350 -12.7033 -12.6877
    -4.0803  -4.0663  -4.0002  -3.9972  -2.7636  -2.7224  -2.5171  -2.4996
    -2.3136  -2.2988  -2.2613  -2.2520  -2.2164  -2.0879  -2.0522  -1.9880
    -1.7002  -1.6350  -1.5219  -1.4648  -1.4151  -1.2720  -1.2299  -1.1685
    -1.1024  -1.0974  -0.9632  -0.9364  -0.8293  -0.7664  -0.7075  -0.6539
    -0.5973  -0.5307  -0.5026  -0.5016  -0.3630  -0.3290  -0.3249  -0.3035
    -0.2410  -0.1516  -0.1371  -0.0746  -0.0606  -0.0492   0.0578   0.0752

     occupation numbers 
     1.0000   1.0000   1.0000   1.0000   1.0000   1.0000   1.0000   1.0000
     1.0000   1.0000   1.0000   1.0000   1.0000   1.0000   1.0000   1.0000
     1.0000   1.0000   1.0000   1.0000   1.0000   1.0000   1.0000   1.0000
     1.0000   1.0000   1.0000   1.0000   1.0000   1.0000   1.0000   1.0000
     1.0000   1.0000   1.0000   1.0000   1.0000   1.0000   1.0000   1.0000
     1.0000   1.0000   1.0000   1.0000   1.0000   1.0000   1.0000   1.0000
     1.0000   1.0000   1.0000   1.0000   1.0000   1.0000   1.0000   1.0000
     1.0000   1.0000   1.0000   1.0000   1.0000   1.0000   1.0000   1.0000

          k =-0.3720 0.0000 0.0000 ( 23781 PWs)   bands (ev):

   -13.5503 -13.4597 -13.4448 -13.4415 -13.0304 -12.9804 -12.9389 -12.9288
   -12.9252 -12.8700 -12.7941 -12.7796 -12.7329 -12.7296 -12.7076 -12.7049
    -4.0195  -3.9878  -3.9553  -3.9461  -2.6925  -2.6529  -2.5674  -2.4802
    -2.3727  -2.3382  -2.2416  -2.1470  -2.1334  -2.0643  -2.0613  -1.9940
    -1.7601  -1.7477  -1.5609  -1.4969  -1.3271  -1.2688  -1.1729  -1.1515
    -1.1210  -1.0622  -1.0253  -0.9467  -0.8972  -0.8353  -0.6843  -0.6321
    -0.6218  -0.5587  -0.5090  -0.4693  -0.4593  -0.4216  -0.3767  -0.3064
    -0.2757  -0.2510  -0.1965  -0.1291  -0.0573  -0.0401   0.0171   0.0365

     occupation numbers 
     1.0000   1.0000   1.0000   1.0000   1.0000   1.0000   1.0000   1.0000
     1.0000   1.0000   1.0000   1.0000   1.0000   1.0000   1.0000   1.0000
     1.0000   1.0000   1.0000   1.0000   1.0000   1.0000   1.0000   1.0000
     1.0000   1.0000   1.0000   1.0000   1.0000   1.0000   1.0000   1.0000
     1.0000   1.0000   1.0000   1.0000   1.0000   1.0000   1.0000   1.0000
     1.0000   1.0000   1.0000   1.0000   1.0000   1.0000   1.0000   1.0000
     1.0000   1.0000   1.0000   1.0000   1.0000   1.0000   1.0000   1.0000
     1.0000   1.0000   1.0000   1.0000   1.0000   1.0000   1.0000   1.0000

          k =-0.3778 0.0000-0.1001 ( 23808 PWs)   bands (ev):

   -13.5426 -13.4824 -13.4410 -13.4322 -13.0157 -12.9915 -12.9403 -12.9293
   -12.9244 -12.8716 -12.7961 -12.7808 -12.7338 -12.7253 -12.7122 -12.7010
    -4.0236  -3.9806  -3.9565  -3.9478  -2.6902  -2.6586  -2.5414  -2.4954
    -2.3784  -2.3174  -2.2631  -2.1331  -2.1230  -2.0909  -2.0555  -2.0248
    -1.7864  -1.7238  -1.5525  -1.4441  -1.3219  -1.3160  -1.1835  -1.1772
    -1.0809  -1.0431  -0.9902  -0.9493  -0.8844  -0.8032  -0.7453  -0.6814
    -0.6726  -0.5441  -0.4914  -0.4747  -0.4475  -0.4249  -0.3373  -0.3103
    -0.3055  -0.2225  -0.2102  -0.1173  -0.0710  -0.0260   0.0070   0.0500

     occupation numbers 
     1.0000   1.0000   1.0000   1.0000   1.0000   1.0000   1.0000   1.0000
     1.0000   1.0000   1.0000   1.0000   1.0000   1.0000   1.0000   1.0000
     1.0000   1.0000   1.0000   1.0000   1.0000   1.0000   1.0000   1.0000
     1.0000   1.0000   1.0000   1.0000   1.0000   1.0000   1.0000   1.0000
     1.0000   1.0000   1.0000   1.0000   1.0000   1.0000   1.0000   1.0000
     1.0000   1.0000   1.0000   1.0000   1.0000   1.0000   1.0000   1.0000
     1.0000   1.0000   1.0000   1.0000   1.0000   1.0000   1.0000   1.0000
     1.0000   1.0000   1.0000   1.0000   1.0000   1.0000   1.0000   1.0000

          k =-0.3835 0.0000-0.2002 ( 23809 PWs)   bands (ev):

   -13.5244 -13.5090 -13.4377 -13.4290 -13.0072 -12.9956 -12.9400 -12.9267
   -12.9173 -12.8828 -12.7974 -12.7868 -12.7320 -12.7201 -12.7155 -12.6988
    -4.0204  -3.9827  -3.9642  -3.9409  -2.6788  -2.6646  -2.5184  -2.5017
    -2.3934  -2.3180  -2.2500  -2.1336  -2.1166  -2.1088  -2.0734  -2.0458
    -1.7860  -1.6801  -1.5547  -1.4217  -1.4110  -1.3592  -1.1835  -1.1522
    -1.0348  -1.0116  -0.9584  -0.8686  -0.8369  -0.8300  -0.7464  -0.7295
    -0.7280  -0.6471  -0.4732  -0.4676  -0.4002  -0.3849  -0.3757  -0.3316
    -0.2945  -0.2295  -0.1560  -0.1434  -0.1042  -0.0211   0.0131   0.0583

     occupation numbers 
     1.0000   1.0000   1.0000   1.0000   1.0000   1.0000   1.0000   1.0000
     1.0000   1.0000   1.0000   1.0000   1.0000   1.0000   1.0000   1.0000
     1.0000   1.0000   1.0000   1.0000   1.0000   1.0000   1.0000   1.0000
     1.0000   1.0000   1.0000   1.0000   1.0000   1.0000   1.0000   1.0000
     1.0000   1.0000   1.0000   1.0000   1.0000   1.0000   1.0000   1.0000
     1.0000   1.0000   1.0000   1.0000   1.0000   1.0000   1.0000   1.0000
     1.0000   1.0000   1.0000   1.0000   1.0000   1.0000   1.0000   1.0000
     1.0000   1.0000   1.0000   1.0000   1.0000   1.0000   1.0000   1.0000

          k =-0.3605 0.0000 0.2002 ( 23802 PWs)   bands (ev):

   -13.5320 -13.4989 -13.4359 -13.4327 -13.0240 -12.9792 -12.9392 -12.9281
   -12.9027 -12.8961 -12.7933 -12.7924 -12.7301 -12.7237 -12.7118 -12.6996
    -4.0113  -3.9954  -3.9643  -3.9374  -2.6740  -2.6630  -2.5481  -2.4694
    -2.3988  -2.3385  -2.2109  -2.1594  -2.1450  -2.0866  -2.0760  -2.0280
    -1.7681  -1.6604  -1.5671  -1.5133  -1.3929  -1.3610  -1.1737  -1.1098
    -1.0617  -1.0462  -0.9371  -0.8443  -0.8244  -0.7976  -0.7790  -0.7303
    -0.6878  -0.6384  -0.4966  -0.4912  -0.4227  -0.3924  -0.3546  -0.3347
    -0.2478  -0.2165  -0.1998  -0.1297  -0.1264  -0.0276   0.0237   0.0524

     occupation numbers 
     1.0000   1.0000   1.0000   1.0000   1.0000   1.0000   1.0000   1.0000
     1.0000   1.0000   1.0000   1.0000   1.0000   1.0000   1.0000   1.0000
     1.0000   1.0000   1.0000   1.0000   1.0000   1.0000   1.0000   1.0000
     1.0000   1.0000   1.0000   1.0000   1.0000   1.0000   1.0000   1.0000
     1.0000   1.0000   1.0000   1.0000   1.0000   1.0000   1.0000   1.0000
     1.0000   1.0000   1.0000   1.0000   1.0000   1.0000   1.0000   1.0000
     1.0000   1.0000   1.0000   1.0000   1.0000   1.0000   1.0000   1.0000
     1.0000   1.0000   1.0000   1.0000   1.0000   1.0000   1.0000   1.0000

          k =-0.3662 0.0000 0.1001 ( 23810 PWs)   bands (ev):

   -13.5466 -13.4718 -13.4408 -13.4383 -13.0337 -12.9753 -12.9319 -12.9299
   -12.9229 -12.8783 -12.7943 -12.7856 -12.7300 -12.7292 -12.7085 -12.7031
    -4.0093  -3.9992  -3.9611  -3.9391  -2.6856  -2.6523  -2.5692  -2.4679
    -2.3726  -2.3625  -2.2035  -2.1656  -2.1499  -2.0772  -2.0531  -2.0032
    -1.7533  -1.7059  -1.5593  -1.5478  -1.3664  -1.3084  -1.1663  -1.1082
    -1.0997  -1.0556  -1.0149  -0.9062  -0.8540  -0.8269  -0.7293  -0.6430
    -0.6108  -0.5627  -0.5336  -0.5106  -0.4536  -0.4221  -0.3381  -0.3260
    -0.2647  -0.2232  -0.2002  -0.1316  -0.1054  -0.0298   0.0294   0.0351

     occupation numbers 
     1.0000   1.0000   1.0000   1.0000   1.0000   1.0000   1.0000   1.0000
     1.0000   1.0000   1.0000   1.0000   1.0000   1.0000   1.0000   1.0000
     1.0000   1.0000   1.0000   1.0000   1.0000   1.0000   1.0000   1.0000
     1.0000   1.0000   1.0000   1.0000   1.0000   1.0000   1.0000   1.0000
     1.0000   1.0000   1.0000   1.0000   1.0000   1.0000   1.0000   1.0000
     1.0000   1.0000   1.0000   1.0000   1.0000   1.0000   1.0000   1.0000
     1.0000   1.0000   1.0000   1.0000   1.0000   1.0000   1.0000   1.0000
     1.0000   1.0000   1.0000   1.0000   1.0000   1.0000   1.0000   1.0000

          k =-0.0000-0.2000 0.0000 ( 23790 PWs)   bands (ev):

   -13.6317 -13.4913 -13.4665 -13.3606 -12.9722 -12.9657 -12.9109 -12.8865
   -12.8761 -12.8549 -12.8481 -12.8300 -12.7760 -12.7579 -12.6900 -12.6808
    -4.1255  -4.0725  -4.0589  -4.0292  -2.7357  -2.6886  -2.5565  -2.4299
    -2.4028  -2.3638  -2.3284  -2.2663  -2.2210  -2.0305  -2.0083  -1.9189
    -1.6631  -1.6612  -1.4803  -1.4362  -1.3565  -1.3241  -1.2589  -1.2231
    -1.0664  -1.0513  -0.9704  -0.9196  -0.9097  -0.7097  -0.6969  -0.6723
    -0.5883  -0.4848  -0.4808  -0.4347  -0.3763  -0.3574  -0.3384  -0.2479
    -0.1833  -0.1293  -0.1013  -0.0832  -0.0249   0.0299   0.0300   0.0395

     occupation numbers 
     1.0000   1.0000   1.0000   1.0000   1.0000   1.0000   1.0000   1.0000
     1.0000   1.0000   1.0000   1.0000   1.0000   1.0000   1.0000   1.0000
     1.0000   1.0000   1.0000   1.0000   1.0000   1.0000   1.0000   1.0000
     1.0000   1.0000   1.0000   1.0000   1.0000   1.0000   1.0000   1.0000
     1.0000   1.0000   1.0000   1.0000   1.0000   1.0000   1.0000   1.0000
     1.0000   1.0000   1.0000   1.0000   1.0000   1.0000   1.0000   1.0000
     1.0000   1.0000   1.0000   1.0000   1.0000   1.0000   1.0000   1.0000
     1.0000   1.0000   1.0000   1.0000   1.0000   1.0000   1.0000   1.0000

          k =-0.0058-0.2000-0.1001 ( 23777 PWs)   bands (ev):

   -13.6241 -13.5262 -13.4344 -13.3644 -12.9730 -12.9659 -12.9089 -12.8901
   -12.8725 -12.8564 -12.8468 -12.8322 -12.7740 -12.7595 -12.6888 -12.6813
    -4.1226  -4.0848  -4.0479  -4.0289  -2.7296  -2.6918  -2.5478  -2.4392
    -2.4106  -2.3770  -2.3387  -2.2439  -2.1986  -2.0488  -1.9988  -1.9449
    -1.7192  -1.6454  -1.4667  -1.4297  -1.3533  -1.3113  -1.2531  -1.1780
    -1.0840  -1.0330  -0.9802  -0.9258  -0.8743  -0.7543  -0.6978  -0.6241
    -0.5915  -0.5422  -0.4574  -0.4298  -0.3998  -0.3478  -0.3252  -0.2482
    -0.1783  -0.1334  -0.1072  -0.0854  -0.0301   0.0229   0.0256   0.0404

     occupation numbers 
     1.0000   1.0000   1.0000   1.0000   1.0000   1.0000   1.0000   1.0000
     1.0000   1.0000   1.0000   1.0000   1.0000   1.0000   1.0000   1.0000
     1.0000   1.0000   1.0000   1.0000   1.0000   1.0000   1.0000   1.0000
     1.0000   1.0000   1.0000   1.0000   1.0000   1.0000   1.0000   1.0000
     1.0000   1.0000   1.0000   1.0000   1.0000   1.0000   1.0000   1.0000
     1.0000   1.0000   1.0000   1.0000   1.0000   1.0000   1.0000   1.0000
     1.0000   1.0000   1.0000   1.0000   1.0000   1.0000   1.0000   1.0000
     1.0000   1.0000   1.0000   1.0000   1.0000   1.0000   1.0000   1.0000

          k =-0.0115-0.2000-0.2002 ( 23780 PWs)   bands (ev):

   -13.6020 -13.5680 -13.4006 -13.3771 -12.9723 -12.9687 -12.9035 -12.8967
   -12.8662 -12.8604 -12.8432 -12.8376 -12.7693 -12.7639 -12.6860 -12.6831
    -4.1142  -4.1010  -4.0362  -4.0301  -2.7153  -2.7011  -2.5197  -2.4745
    -2.4183  -2.4087  -2.3042  -2.2653  -2.1286  -2.0683  -2.0033  -1.9983
    -1.7299  -1.6917  -1.4232  -1.3942  -1.3602  -1.3555  -1.1687  -1.1447
    -1.1174  -1.0701  -0.9165  -0.8801  -0.8543  -0.8087  -0.6793  -0.6544
    -0.5704  -0.5341  -0.5175  -0.4913  -0.3378  -0.3254  -0.3122  -0.2540
    -0.1825  -0.1508  -0.1139  -0.0983  -0.0187   0.0055   0.0248   0.0348

     occupation numbers 
     1.0000   1.0000   1.0000   1.0000   1.0000   1.0000   1.0000   1.0000
     1.0000   1.0000   1.0000   1.0000   1.0000   1.0000   1.0000   1.0000
     1.0000   1.0000   1.0000   1.0000   1.0000   1.0000   1.0000   1.0000
     1.0000   1.0000   1.0000   1.0000   1.0000   1.0000   1.0000   1.0000
     1.0000   1.0000   1.0000   1.0000   1.0000   1.0000   1.0000   1.0000
     1.0000   1.0000   1.0000   1.0000   1.0000   1.0000   1.0000   1.0000
     1.0000   1.0000   1.0000   1.0000   1.0000   1.0000   1.0000   1.0000
     1.0000   1.0000   1.0000   1.0000   1.0000   1.0000   1.0000   1.0000

          k =-0.1860-0.2000 0.0000 ( 23799 PWs)   bands (ev):

   -13.6034 -13.4779 -13.4538 -13.3758 -12.9814 -12.9783 -12.9453 -12.9135
   -12.8915 -12.8649 -12.8227 -12.8000 -12.7675 -12.7500 -12.6991 -12.6869
    -4.0928  -4.0395  -4.0207  -3.9801  -2.7106  -2.6734  -2.5803  -2.4447
    -2.3937  -2.3431  -2.2542  -2.2319  -2.1812  -2.1011  -1.9953  -1.9656
    -1.7168  -1.6448  -1.4736  -1.4397  -1.3994  -1.3339  -1.2596  -1.1665
    -1.1089  -1.0453  -0.9724  -0.9288  -0.8484  -0.7378  -0.7152  -0.6817
    -0.6172  -0.5251  -0.4825  -0.4444  -0.4184  -0.3543  -0.3420  -0.2804
    -0.2299  -0.1991  -0.1124  -0.0961  -0.0745  -0.0232   0.0343   0.0603

     occupation numbers 
     1.0000   1.0000   1.0000   1.0000   1.0000   1.0000   1.0000   1.0000
     1.0000   1.0000   1.0000   1.0000   1.0000   1.0000   1.0000   1.0000
     1.0000   1.0000   1.0000   1.0000   1.0000   1.0000   1.0000   1.0000
     1.0000   1.0000   1.0000   1.0000   1.0000   1.0000   1.0000   1.0000
     1.0000   1.0000   1.0000   1.0000   1.0000   1.0000   1.0000   1.0000
     1.0000   1.0000   1.0000   1.0000   1.0000   1.0000   1.0000   1.0000
     1.0000   1.0000   1.0000   1.0000   1.0000   1.0000   1.0000   1.0000
     1.0000   1.0000   1.0000   1.0000   1.0000   1.0000   1.0000   1.0000

          k =-0.1918-0.2000-0.1001 ( 23787 PWs)   bands (ev):

   -13.5949 -13.5115 -13.4248 -13.3792 -12.9832 -12.9700 -12.9475 -12.9120
   -12.9028 -12.8621 -12.8189 -12.8006 -12.7675 -12.7518 -12.6974 -12.6873
    -4.0922  -4.0440  -4.0162  -3.9793  -2.7046  -2.6782  -2.5853  -2.4265
    -2.3865  -2.3385  -2.3093  -2.2377  -2.1445  -2.0933  -2.0046  -1.9756
    -1.7402  -1.6509  -1.4664  -1.4316  -1.3675  -1.3294  -1.2612  -1.1969
    -1.0695  -1.0164  -0.9530  -0.9343  -0.8684  -0.7855  -0.7089  -0.6914
    -0.6476  -0.5199  -0.4587  -0.4521  -0.3879  -0.3513  -0.3306  -0.3154
    -0.2076  -0.1960  -0.1280  -0.0939  -0.0748  -0.0302   0.0401   0.0560

     occupation numbers 
     1.0000   1.0000   1.0000   1.0000   1.0000   1.0000   1.0000   1.0000
     1.0000   1.0000   1.0000   1.0000   1.0000   1.0000   1.0000   1.0000
     1.0000   1.0000   1.0000   1.0000   1.0000   1.0000   1.0000   1.0000
     1.0000   1.0000   1.0000   1.0000   1.0000   1.0000   1.0000   1.0000
     1.0000   1.0000   1.0000   1.0000   1.0000   1.0000   1.0000   1.0000
     1.0000   1.0000   1.0000   1.0000   1.0000   1.0000   1.0000   1.0000
     1.0000   1.0000   1.0000   1.0000   1.0000   1.0000   1.0000   1.0000
     1.0000   1.0000   1.0000   1.0000   1.0000   1.0000   1.0000   1.0000

          k =-0.1975-0.2000-0.2002 ( 23799 PWs)   bands (ev):

   -13.5733 -13.5485 -13.4000 -13.3881 -12.9865 -12.9661 -12.9449 -12.9186
   -12.8981 -12.8629 -12.8183 -12.8059 -12.7644 -12.7521 -12.6988 -12.6858
    -4.0915  -4.0463  -4.0167  -3.9752  -2.6968  -2.6897  -2.5715  -2.4027
    -2.3795  -2.3660  -2.3224  -2.2430  -2.1074  -2.1009  -2.0552  -1.9811
    -1.7551  -1.6748  -1.4783  -1.4243  -1.3453  -1.2716  -1.2305  -1.2273
    -1.0650  -0.9805  -0.9547  -0.9159  -0.8365  -0.8161  -0.7246  -0.6970
    -0.6413  -0.5266  -0.5121  -0.4474  -0.4126  -0.3630  -0.3165  -0.2585
    -0.2062  -0.1871  -0.1434  -0.0886  -0.0792  -0.0623   0.0459   0.0523

     occupation numbers 
     1.0000   1.0000   1.0000   1.0000   1.0000   1.0000   1.0000   1.0000
     1.0000   1.0000   1.0000   1.0000   1.0000   1.0000   1.0000   1.0000
     1.0000   1.0000   1.0000   1.0000   1.0000   1.0000   1.0000   1.0000
     1.0000   1.0000   1.0000   1.0000   1.0000   1.0000   1.0000   1.0000
     1.0000   1.0000   1.0000   1.0000   1.0000   1.0000   1.0000   1.0000
     1.0000   1.0000   1.0000   1.0000   1.0000   1.0000   1.0000   1.0000
     1.0000   1.0000   1.0000   1.0000   1.0000   1.0000   1.0000   1.0000
     1.0000   1.0000   1.0000   1.0000   1.0000   1.0000   1.0000   1.0000

          k =-0.1745-0.2000 0.2002 ( 23800 PWs)   bands (ev):

   -13.5788 -13.5409 -13.4063 -13.3839 -12.9895 -12.9690 -12.9423 -12.9191
   -12.8859 -12.8686 -12.8182 -12.8115 -12.7620 -12.7506 -12.7009 -12.6848
    -4.0918  -4.0436  -4.0207  -3.9737  -2.7024  -2.6870  -2.5572  -2.4302
    -2.3809  -2.3583  -2.2938  -2.2326  -2.1494  -2.1069  -2.0226  -2.0057
    -1.7353  -1.6940  -1.4967  -1.4309  -1.3143  -1.2877  -1.2148  -1.1861
    -1.0964  -1.0335  -0.9624  -0.8965  -0.8391  -0.7416  -0.7209  -0.6593
    -0.6055  -0.5941  -0.5350  -0.4709  -0.4361  -0.3462  -0.3118  -0.2613
    -0.2050  -0.1606  -0.1373  -0.1076  -0.0875  -0.0668   0.0439   0.0561

     occupation numbers 
     1.0000   1.0000   1.0000   1.0000   1.0000   1.0000   1.0000   1.0000
     1.0000   1.0000   1.0000   1.0000   1.0000   1.0000   1.0000   1.0000
     1.0000   1.0000   1.0000   1.0000   1.0000   1.0000   1.0000   1.0000
     1.0000   1.0000   1.0000   1.0000   1.0000   1.0000   1.0000   1.0000
     1.0000   1.0000   1.0000   1.0000   1.0000   1.0000   1.0000   1.0000
     1.0000   1.0000   1.0000   1.0000   1.0000   1.0000   1.0000   1.0000
     1.0000   1.0000   1.0000   1.0000   1.0000   1.0000   1.0000   1.0000
     1.0000   1.0000   1.0000   1.0000   1.0000   1.0000   1.0000   1.0000

          k =-0.1802-0.2000 0.1001 ( 23817 PWs)   bands (ev):

   -13.5979 -13.5029 -13.4329 -13.3771 -12.9886 -12.9740 -12.9427 -12.9160
   -12.8798 -12.8722 -12.8228 -12.8064 -12.7642 -12.7490 -12.7012 -12.6855
    -4.0926  -4.0377  -4.0251  -3.9765  -2.7105  -2.6772  -2.5643  -2.4474
    -2.3897  -2.3468  -2.2544  -2.2190  -2.1912  -2.1098  -2.0171  -1.9738
    -1.7051  -1.6848  -1.5000  -1.4372  -1.3653  -1.2965  -1.2162  -1.1789
    -1.1162  -1.0475  -0.9904  -0.9134  -0.8175  -0.7485  -0.7034  -0.6605
    -0.5859  -0.5391  -0.5200  -0.4826  -0.4601  -0.3552  -0.3201  -0.2513
    -0.2281  -0.1825  -0.1336  -0.0901  -0.0644  -0.0598   0.0387   0.0592

     occupation numbers 
     1.0000   1.0000   1.0000   1.0000   1.0000   1.0000   1.0000   1.0000
     1.0000   1.0000   1.0000   1.0000   1.0000   1.0000   1.0000   1.0000
     1.0000   1.0000   1.0000   1.0000   1.0000   1.0000   1.0000   1.0000
     1.0000   1.0000   1.0000   1.0000   1.0000   1.0000   1.0000   1.0000
     1.0000   1.0000   1.0000   1.0000   1.0000   1.0000   1.0000   1.0000
     1.0000   1.0000   1.0000   1.0000   1.0000   1.0000   1.0000   1.0000
     1.0000   1.0000   1.0000   1.0000   1.0000   1.0000   1.0000   1.0000
     1.0000   1.0000   1.0000   1.0000   1.0000   1.0000   1.0000   1.0000

          k =-0.3720-0.2000 0.0000 ( 23816 PWs)   bands (ev):

   -13.5302 -13.4546 -13.4333 -13.4298 -13.0257 -12.9921 -12.9486 -12.9396
   -12.9220 -12.8744 -12.7949 -12.7849 -12.7520 -12.7305 -12.7184 -12.7025
    -4.0254  -4.0040  -3.9330  -3.9120  -2.6422  -2.6381  -2.5959  -2.4729
    -2.4118  -2.3177  -2.2103  -2.1949  -2.1403  -2.0631  -2.0210  -1.9706
    -1.7748  -1.7322  -1.5577  -1.4510  -1.3668  -1.2729  -1.2561  -1.2093
    -1.0712  -1.0321  -0.9859  -0.9410  -0.8718  -0.7919  -0.7324  -0.6782
    -0.5876  -0.5538  -0.5399  -0.5158  -0.4615  -0.3920  -0.3749  -0.3026
    -0.2974  -0.2233  -0.1497  -0.1476  -0.0668  -0.0366  -0.0162   0.0143

     occupation numbers 
     1.0000   1.0000   1.0000   1.0000   1.0000   1.0000   1.0000   1.0000
     1.0000   1.0000   1.0000   1.0000   1.0000   1.0000   1.0000   1.0000
     1.0000   1.0000   1.0000   1.0000   1.0000   1.0000   1.0000   1.0000
     1.0000   1.0000   1.0000   1.0000   1.0000   1.0000   1.0000   1.0000
     1.0000   1.0000   1.0000   1.0000   1.0000   1.0000   1.0000   1.0000
     1.0000   1.0000   1.0000   1.0000   1.0000   1.0000   1.0000   1.0000
     1.0000   1.0000   1.0000   1.0000   1.0000   1.0000   1.0000   1.0000
     1.0000   1.0000   1.0000   1.0000   1.0000   1.0000   1.0000   1.0000

          k =-0.3778-0.2000-0.1001 ( 23806 PWs)   bands (ev):

   -13.5229 -13.4710 -13.4320 -13.4232 -13.0145 -12.9976 -12.9519 -12.9433
   -12.9174 -12.8757 -12.7962 -12.7856 -12.7520 -12.7307 -12.7171 -12.7021
    -4.0283  -4.0000  -3.9314  -3.9144  -2.6450  -2.6401  -2.5780  -2.4863
    -2.3955  -2.3374  -2.2334  -2.1631  -2.1309  -2.0536  -2.0213  -2.0065
    -1.7976  -1.7145  -1.5510  -1.4097  -1.3711  -1.2914  -1.2640  -1.2042
    -1.0749  -1.0293  -0.9713  -0.9371  -0.8602  -0.8091  -0.7658  -0.6919
    -0.5935  -0.5734  -0.5434  -0.4955  -0.4418  -0.3982  -0.3348  -0.3115
    -0.2743  -0.2348  -0.1685  -0.1396  -0.0859  -0.0326  -0.0080   0.0159

     occupation numbers 
     1.0000   1.0000   1.0000   1.0000   1.0000   1.0000   1.0000   1.0000
     1.0000   1.0000   1.0000   1.0000   1.0000   1.0000   1.0000   1.0000
     1.0000   1.0000   1.0000   1.0000   1.0000   1.0000   1.0000   1.0000
     1.0000   1.0000   1.0000   1.0000   1.0000   1.0000   1.0000   1.0000
     1.0000   1.0000   1.0000   1.0000   1.0000   1.0000   1.0000   1.0000
     1.0000   1.0000   1.0000   1.0000   1.0000   1.0000   1.0000   1.0000
     1.0000   1.0000   1.0000   1.0000   1.0000   1.0000   1.0000   1.0000
     1.0000   1.0000   1.0000   1.0000   1.0000   1.0000   1.0000   1.0000

          k =-0.3835-0.2000-0.2002 ( 23805 PWs)   bands (ev):

   -13.5068 -13.4926 -13.4309 -13.4204 -13.0066 -12.9971 -12.9588 -12.9477
   -12.9032 -12.8817 -12.8002 -12.7909 -12.7469 -12.7300 -12.7179 -12.7013
    -4.0290  -3.9963  -3.9380  -3.9107  -2.6478  -2.6369  -2.5622  -2.4886
    -2.3829  -2.3682  -2.2276  -2.1452  -2.1130  -2.0880  -2.0373  -2.0121
    -1.7992  -1.6986  -1.5449  -1.4277  -1.3734  -1.3224  -1.2564  -1.1624
    -1.0963  -1.0217  -0.9809  -0.8961  -0.8158  -0.8026  -0.7612  -0.7087
    -0.6646  -0.6037  -0.5500  -0.4886  -0.4068  -0.3982  -0.3317  -0.2769
    -0.2560  -0.2292  -0.1875  -0.1665  -0.0960  -0.0377  -0.0036   0.0208

     occupation numbers 
     1.0000   1.0000   1.0000   1.0000   1.0000   1.0000   1.0000   1.0000
     1.0000   1.0000   1.0000   1.0000   1.0000   1.0000   1.0000   1.0000
     1.0000   1.0000   1.0000   1.0000   1.0000   1.0000   1.0000   1.0000
     1.0000   1.0000   1.0000   1.0000   1.0000   1.0000   1.0000   1.0000
     1.0000   1.0000   1.0000   1.0000   1.0000   1.0000   1.0000   1.0000
     1.0000   1.0000   1.0000   1.0000   1.0000   1.0000   1.0000   1.0000
     1.0000   1.0000   1.0000   1.0000   1.0000   1.0000   1.0000   1.0000
     1.0000   1.0000   1.0000   1.0000   1.0000   1.0000   1.0000   1.0000

          k =-0.3605-0.2000 0.2002 ( 23805 PWs)   bands (ev):

   -13.5138 -13.4831 -13.4324 -13.4214 -13.0185 -12.9842 -12.9620 -12.9471
   -12.8956 -12.8865 -12.8008 -12.7935 -12.7440 -12.7292 -12.7199 -12.7013
    -4.0270  -3.9972  -3.9422  -3.9075  -2.6469  -2.6330  -2.5759  -2.4585
    -2.4281  -2.3393  -2.2016  -2.1858  -2.1140  -2.0920  -2.0392  -1.9958
    -1.7803  -1.7044  -1.5506  -1.4591  -1.3864  -1.3142  -1.2475  -1.1435
    -1.1289  -1.0267  -0.9397  -0.8897  -0.8290  -0.7655  -0.7458  -0.7001
    -0.6786  -0.6169  -0.5655  -0.4918  -0.4257  -0.3801  -0.3292  -0.3102
    -0.2541  -0.2033  -0.1770  -0.1734  -0.1042  -0.0438   0.0035   0.0163

     occupation numbers 
     1.0000   1.0000   1.0000   1.0000   1.0000   1.0000   1.0000   1.0000
     1.0000   1.0000   1.0000   1.0000   1.0000   1.0000   1.0000   1.0000
     1.0000   1.0000   1.0000   1.0000   1.0000   1.0000   1.0000   1.0000
     1.0000   1.0000   1.0000   1.0000   1.0000   1.0000   1.0000   1.0000
     1.0000   1.0000   1.0000   1.0000   1.0000   1.0000   1.0000   1.0000
     1.0000   1.0000   1.0000   1.0000   1.0000   1.0000   1.0000   1.0000
     1.0000   1.0000   1.0000   1.0000   1.0000   1.0000   1.0000   1.0000
     1.0000   1.0000   1.0000   1.0000   1.0000   1.0000   1.0000   1.0000

          k =-0.3662-0.2000 0.1001 ( 23819 PWs)   bands (ev):

   -13.5269 -13.4602 -13.4375 -13.4244 -13.0270 -12.9859 -12.9537 -12.9439
   -12.9108 -12.8769 -12.8014 -12.7860 -12.7479 -12.7286 -12.7206 -12.7020
    -4.0246  -4.0024  -3.9394  -3.9080  -2.6444  -2.6328  -2.5941  -2.4580
    -2.4259  -2.3194  -2.2159  -2.1903  -2.1251  -2.0862  -2.0290  -1.9694
    -1.7596  -1.7296  -1.5564  -1.4804  -1.3838  -1.2711  -1.2550  -1.1825
    -1.1050  -1.0232  -0.9669  -0.9204  -0.8309  -0.7789  -0.7253  -0.6841
    -0.6200  -0.5986  -0.5768  -0.4706  -0.4633  -0.3906  -0.3541  -0.3082
    -0.2958  -0.1972  -0.1721  -0.1461  -0.0805  -0.0504  -0.0042   0.0157

     occupation numbers 
     1.0000   1.0000   1.0000   1.0000   1.0000   1.0000   1.0000   1.0000
     1.0000   1.0000   1.0000   1.0000   1.0000   1.0000   1.0000   1.0000
     1.0000   1.0000   1.0000   1.0000   1.0000   1.0000   1.0000   1.0000
     1.0000   1.0000   1.0000   1.0000   1.0000   1.0000   1.0000   1.0000
     1.0000   1.0000   1.0000   1.0000   1.0000   1.0000   1.0000   1.0000
     1.0000   1.0000   1.0000   1.0000   1.0000   1.0000   1.0000   1.0000
     1.0000   1.0000   1.0000   1.0000   1.0000   1.0000   1.0000   1.0000
     1.0000   1.0000   1.0000   1.0000   1.0000   1.0000   1.0000   1.0000

          k =-0.0000-0.4000 0.0000 ( 23830 PWs)   bands (ev):

   -13.5609 -13.4970 -13.4341 -13.4005 -12.9892 -12.9818 -12.9069 -12.9009
   -12.8690 -12.8595 -12.8393 -12.8316 -12.7948 -12.7806 -12.6891 -12.6850
    -4.1126  -4.0823  -4.0498  -4.0438  -2.5983  -2.5826  -2.5629  -2.5309
    -2.4669  -2.4413  -2.2815  -2.2230  -2.1888  -2.0495  -1.9141  -1.8884
    -1.7057  -1.6961  -1.4885  -1.4602  -1.3629  -1.2752  -1.2024  -1.2002
    -1.0918  -1.0598  -1.0133  -0.8690  -0.8568  -0.7291  -0.7086  -0.6600
    -0.6420  -0.5737  -0.4215  -0.3790  -0.3696  -0.3427  -0.2987  -0.2203
    -0.1955  -0.1836  -0.1636  -0.1462  -0.0191  -0.0191   0.0048   0.0349

     occupation numbers 
     1.0000   1.0000   1.0000   1.0000   1.0000   1.0000   1.0000   1.0000
     1.0000   1.0000   1.0000   1.0000   1.0000   1.0000   1.0000   1.0000
     1.0000   1.0000   1.0000   1.0000   1.0000   1.0000   1.0000   1.0000
     1.0000   1.0000   1.0000   1.0000   1.0000   1.0000   1.0000   1.0000
     1.0000   1.0000   1.0000   1.0000   1.0000   1.0000   1.0000   1.0000
     1.0000   1.0000   1.0000   1.0000   1.0000   1.0000   1.0000   1.0000
     1.0000   1.0000   1.0000   1.0000   1.0000   1.0000   1.0000   1.0000
     1.0000   1.0000   1.0000   1.0000   1.0000   1.0000   1.0000   1.0000

          k =-0.0058-0.4000-0.1001 ( 23821 PWs)   bands (ev):

   -13.5558 -13.5049 -13.4298 -13.4030 -12.9873 -12.9797 -12.9069 -12.9017
   -12.8670 -12.8582 -12.8428 -12.8360 -12.7919 -12.7811 -12.6886 -12.6853
    -4.1093  -4.0846  -4.0491  -4.0432  -2.5911  -2.5822  -2.5643  -2.5347
    -2.4713  -2.4525  -2.2640  -2.2263  -2.1861  -2.0676  -1.9236  -1.9062
    -1.7316  -1.6938  -1.4420  -1.3957  -1.3559  -1.2749  -1.2101  -1.1756
    -1.1131  -1.0756  -1.0349  -0.8975  -0.8419  -0.7388  -0.7175  -0.6798
    -0.6053  -0.5485  -0.4335  -0.3810  -0.3672  -0.3173  -0.2916  -0.2343
    -0.2213  -0.1754  -0.1712  -0.1474  -0.0260  -0.0124   0.0015   0.0324

     occupation numbers 
     1.0000   1.0000   1.0000   1.0000   1.0000   1.0000   1.0000   1.0000
     1.0000   1.0000   1.0000   1.0000   1.0000   1.0000   1.0000   1.0000
     1.0000   1.0000   1.0000   1.0000   1.0000   1.0000   1.0000   1.0000
     1.0000   1.0000   1.0000   1.0000   1.0000   1.0000   1.0000   1.0000
     1.0000   1.0000   1.0000   1.0000   1.0000   1.0000   1.0000   1.0000
     1.0000   1.0000   1.0000   1.0000   1.0000   1.0000   1.0000   1.0000
     1.0000   1.0000   1.0000   1.0000   1.0000   1.0000   1.0000   1.0000
     1.0000   1.0000   1.0000   1.0000   1.0000   1.0000   1.0000   1.0000

          k =-0.0115-0.4000-0.2002 ( 23797 PWs)   bands (ev):

   -13.5419 -13.5229 -13.4202 -13.4100 -12.9820 -12.9781 -12.9060 -12.9037
   -12.8615 -12.8555 -12.8494 -12.8445 -12.7867 -12.7828 -12.6875 -12.6862
    -4.1012  -4.0916  -4.0464  -4.0436  -2.5816  -2.5771  -2.5619  -2.5458
    -2.4781  -2.4713  -2.2364  -2.2263  -2.1722  -2.1195  -1.9355  -1.9284
    -1.7299  -1.7118  -1.3634  -1.3467  -1.3150  -1.2554  -1.2146  -1.1550
    -1.1247  -1.0970  -1.0702  -0.9834  -0.8057  -0.7674  -0.7166  -0.7030
    -0.5473  -0.5202  -0.4377  -0.4026  -0.3454  -0.3111  -0.2666  -0.2616
    -0.2219  -0.1930  -0.1790  -0.1661  -0.0234  -0.0163   0.0082   0.0226

     occupation numbers 
     1.0000   1.0000   1.0000   1.0000   1.0000   1.0000   1.0000   1.0000
     1.0000   1.0000   1.0000   1.0000   1.0000   1.0000   1.0000   1.0000
     1.0000   1.0000   1.0000   1.0000   1.0000   1.0000   1.0000   1.0000
     1.0000   1.0000   1.0000   1.0000   1.0000   1.0000   1.0000   1.0000
     1.0000   1.0000   1.0000   1.0000   1.0000   1.0000   1.0000   1.0000
     1.0000   1.0000   1.0000   1.0000   1.0000   1.0000   1.0000   1.0000
     1.0000   1.0000   1.0000   1.0000   1.0000   1.0000   1.0000   1.0000
     1.0000   1.0000   1.0000   1.0000   1.0000   1.0000   1.0000   1.0000

          k =-0.1860-0.4000 0.0000 ( 23826 PWs)   bands (ev):

   -13.5382 -13.4816 -13.4251 -13.3999 -12.9907 -12.9891 -12.9512 -12.9291
   -12.8838 -12.8695 -12.8269 -12.8058 -12.7812 -12.7697 -12.6986 -12.6933
    -4.0852  -4.0610  -3.9952  -3.9768  -2.6099  -2.6070  -2.5565  -2.4658
    -2.4440  -2.4076  -2.2790  -2.2359  -2.1307  -2.0996  -1.9145  -1.9036
    -1.7399  -1.7139  -1.4918  -1.4708  -1.3470  -1.2853  -1.2295  -1.1377
    -1.1042  -1.0374  -1.0339  -0.9550  -0.8300  -0.7877  -0.7613  -0.6856
    -0.6360  -0.5684  -0.4553  -0.4027  -0.3620  -0.3407  -0.3013  -0.2858
    -0.2395  -0.1834  -0.1483  -0.1328  -0.0685  -0.0356  -0.0158   0.0208

     occupation numbers 
     1.0000   1.0000   1.0000   1.0000   1.0000   1.0000   1.0000   1.0000
     1.0000   1.0000   1.0000   1.0000   1.0000   1.0000   1.0000   1.0000
     1.0000   1.0000   1.0000   1.0000   1.0000   1.0000   1.0000   1.0000
     1.0000   1.0000   1.0000   1.0000   1.0000   1.0000   1.0000   1.0000
     1.0000   1.0000   1.0000   1.0000   1.0000   1.0000   1.0000   1.0000
     1.0000   1.0000   1.0000   1.0000   1.0000   1.0000   1.0000   1.0000
     1.0000   1.0000   1.0000   1.0000   1.0000   1.0000   1.0000   1.0000
     1.0000   1.0000   1.0000   1.0000   1.0000   1.0000   1.0000   1.0000

          k =-0.1918-0.4000-0.1001 ( 23816 PWs)   bands (ev):

   -13.5325 -13.4902 -13.4196 -13.4037 -12.9892 -12.9872 -12.9521 -12.9294
   -12.8786 -12.8675 -12.8304 -12.8165 -12.7765 -12.7682 -12.6983 -12.6933
    -4.0817  -4.0632  -3.9929  -3.9792  -2.6116  -2.5977  -2.5672  -2.4715
    -2.4546  -2.3911  -2.2960  -2.2166  -2.1076  -2.1017  -1.9256  -1.9006
    -1.7842  -1.7547  -1.4358  -1.4283  -1.3311  -1.2753  -1.2511  -1.1546
    -1.0839  -1.0602  -1.0199  -0.9874  -0.8303  -0.7861  -0.7590  -0.6954
    -0.6147  -0.5688  -0.4617  -0.3984  -0.3643  -0.3411  -0.3123  -0.2641
    -0.2478  -0.1829  -0.1399  -0.1327  -0.0744  -0.0442  -0.0101   0.0151

     occupation numbers 
     1.0000   1.0000   1.0000   1.0000   1.0000   1.0000   1.0000   1.0000
     1.0000   1.0000   1.0000   1.0000   1.0000   1.0000   1.0000   1.0000
     1.0000   1.0000   1.0000   1.0000   1.0000   1.0000   1.0000   1.0000
     1.0000   1.0000   1.0000   1.0000   1.0000   1.0000   1.0000   1.0000
     1.0000   1.0000   1.0000   1.0000   1.0000   1.0000   1.0000   1.0000
     1.0000   1.0000   1.0000   1.0000   1.0000   1.0000   1.0000   1.0000
     1.0000   1.0000   1.0000   1.0000   1.0000   1.0000   1.0000   1.0000
     1.0000   1.0000   1.0000   1.0000   1.0000   1.0000   1.0000   1.0000

          k =-0.1975-0.4000-0.2002 ( 23805 PWs)   bands (ev):

   -13.5191 -13.5060 -13.4119 -13.4105 -12.9851 -12.9827 -12.9531 -12.9344
   -12.8776 -12.8714 -12.8259 -12.8143 -12.7796 -12.7693 -12.6989 -12.6927
    -4.0805  -4.0608  -3.9963  -3.9769  -2.6073  -2.5966  -2.5653  -2.4882
    -2.4652  -2.3880  -2.2820  -2.2007  -2.1244  -2.0974  -1.9561  -1.9227
    -1.7848  -1.7518  -1.3990  -1.3701  -1.3273  -1.2658  -1.2333  -1.1945
    -1.1061  -1.0616  -1.0266  -0.9849  -0.8425  -0.8025  -0.7630  -0.6999
    -0.5726  -0.5531  -0.4609  -0.3876  -0.3702  -0.3552  -0.3253  -0.2637
    -0.2221  -0.1885  -0.1496  -0.1316  -0.0839  -0.0635  -0.0048   0.0131

     occupation numbers 
     1.0000   1.0000   1.0000   1.0000   1.0000   1.0000   1.0000   1.0000
     1.0000   1.0000   1.0000   1.0000   1.0000   1.0000   1.0000   1.0000
     1.0000   1.0000   1.0000   1.0000   1.0000   1.0000   1.0000   1.0000
     1.0000   1.0000   1.0000   1.0000   1.0000   1.0000   1.0000   1.0000
     1.0000   1.0000   1.0000   1.0000   1.0000   1.0000   1.0000   1.0000
     1.0000   1.0000   1.0000   1.0000   1.0000   1.0000   1.0000   1.0000
     1.0000   1.0000   1.0000   1.0000   1.0000   1.0000   1.0000   1.0000
     1.0000   1.0000   1.0000   1.0000   1.0000   1.0000   1.0000   1.0000

          k =-0.1745-0.4000 0.2002 ( 23791 PWs)   bands (ev):

   -13.5231 -13.5008 -13.4189 -13.4043 -12.9838 -12.9821 -12.9529 -12.9370
   -12.8810 -12.8763 -12.8149 -12.8072 -12.7844 -12.7732 -12.6994 -12.6925
    -4.0833  -4.0567  -4.0001  -3.9741  -2.6087  -2.5922  -2.5667  -2.4801
    -2.4723  -2.3946  -2.2635  -2.2016  -2.1540  -2.0992  -1.9634  -1.9397
    -1.7448  -1.7183  -1.4425  -1.3586  -1.3323  -1.2778  -1.2044  -1.1968
    -1.1312  -1.0673  -1.0330  -0.9221  -0.8729  -0.8269  -0.7490  -0.6960
    -0.5824  -0.5241  -0.4530  -0.4091  -0.3702  -0.3477  -0.3129  -0.2844
    -0.2103  -0.1945  -0.1588  -0.1285  -0.0868  -0.0681  -0.0069   0.0186

     occupation numbers 
     1.0000   1.0000   1.0000   1.0000   1.0000   1.0000   1.0000   1.0000
     1.0000   1.0000   1.0000   1.0000   1.0000   1.0000   1.0000   1.0000
     1.0000   1.0000   1.0000   1.0000   1.0000   1.0000   1.0000   1.0000
     1.0000   1.0000   1.0000   1.0000   1.0000   1.0000   1.0000   1.0000
     1.0000   1.0000   1.0000   1.0000   1.0000   1.0000   1.0000   1.0000
     1.0000   1.0000   1.0000   1.0000   1.0000   1.0000   1.0000   1.0000
     1.0000   1.0000   1.0000   1.0000   1.0000   1.0000   1.0000   1.0000
     1.0000   1.0000   1.0000   1.0000   1.0000   1.0000   1.0000   1.0000

          k =-0.1802-0.4000 0.1001 ( 23811 PWs)   bands (ev):

   -13.5348 -13.4859 -13.4250 -13.3999 -12.9887 -12.9851 -12.9516 -12.9335
   -12.8847 -12.8753 -12.8148 -12.8018 -12.7858 -12.7738 -12.6993 -12.6928
    -4.0859  -4.0572  -3.9993  -3.9740  -2.6128  -2.5970  -2.5597  -2.4764
    -2.4495  -2.4068  -2.2573  -2.2309  -2.1532  -2.1022  -1.9396  -1.9263
    -1.7118  -1.6941  -1.4974  -1.4388  -1.3488  -1.2647  -1.2129  -1.1689
    -1.1225  -1.0641  -1.0179  -0.9172  -0.8504  -0.8307  -0.7449  -0.6889
    -0.6168  -0.5416  -0.4568  -0.3933  -0.3661  -0.3436  -0.3114  -0.2906
    -0.2286  -0.1754  -0.1670  -0.1302  -0.0789  -0.0498  -0.0118   0.0230

     occupation numbers 
     1.0000   1.0000   1.0000   1.0000   1.0000   1.0000   1.0000   1.0000
     1.0000   1.0000   1.0000   1.0000   1.0000   1.0000   1.0000   1.0000
     1.0000   1.0000   1.0000   1.0000   1.0000   1.0000   1.0000   1.0000
     1.0000   1.0000   1.0000   1.0000   1.0000   1.0000   1.0000   1.0000
     1.0000   1.0000   1.0000   1.0000   1.0000   1.0000   1.0000   1.0000
     1.0000   1.0000   1.0000   1.0000   1.0000   1.0000   1.0000   1.0000
     1.0000   1.0000   1.0000   1.0000   1.0000   1.0000   1.0000   1.0000
     1.0000   1.0000   1.0000   1.0000   1.0000   1.0000   1.0000   1.0000

          k =-0.3720-0.4000 0.0000 ( 23838 PWs)   bands (ev):

   -13.4851 -13.4542 -13.4131 -13.4114 -13.0159 -13.0085 -12.9783 -12.9726
   -12.8915 -12.8748 -12.8129 -12.8022 -12.7571 -12.7461 -12.7191 -12.7129
    -4.0273  -4.0186  -3.8948  -3.8826  -2.6168  -2.6074  -2.5702  -2.5079
    -2.3657  -2.3070  -2.2788  -2.2685  -2.0662  -2.0482  -1.9277  -1.9020
    -1.7840  -1.7406  -1.5575  -1.5156  -1.3335  -1.3040  -1.2705  -1.2097
    -1.0953  -1.0197  -1.0083  -0.9548  -0.8508  -0.8207  -0.7735  -0.7303
    -0.6743  -0.6386  -0.5043  -0.4389  -0.4068  -0.3751  -0.2987  -0.2772
    -0.2367  -0.2247  -0.1579  -0.1379  -0.1187  -0.0784  -0.0429   0.0012

     occupation numbers 
     1.0000   1.0000   1.0000   1.0000   1.0000   1.0000   1.0000   1.0000
     1.0000   1.0000   1.0000   1.0000   1.0000   1.0000   1.0000   1.0000
     1.0000   1.0000   1.0000   1.0000   1.0000   1.0000   1.0000   1.0000
     1.0000   1.0000   1.0000   1.0000   1.0000   1.0000   1.0000   1.0000
     1.0000   1.0000   1.0000   1.0000   1.0000   1.0000   1.0000   1.0000
     1.0000   1.0000   1.0000   1.0000   1.0000   1.0000   1.0000   1.0000
     1.0000   1.0000   1.0000   1.0000   1.0000   1.0000   1.0000   1.0000
     1.0000   1.0000   1.0000   1.0000   1.0000   1.0000   1.0000   1.0000

          k =-0.3778-0.4000-0.1001 ( 23841 PWs)   bands (ev):

   -13.4804 -13.4572 -13.4163 -13.4110 -13.0115 -13.0073 -12.9803 -12.9757
   -12.8891 -12.8765 -12.8115 -12.8017 -12.7588 -12.7461 -12.7193 -12.7132
    -4.0267  -4.0179  -3.8933  -3.8855  -2.6154  -2.6083  -2.5678  -2.5199
    -2.3648  -2.2982  -2.2883  -2.2302  -2.0833  -2.0631  -1.9217  -1.8988
    -1.7971  -1.7401  -1.5480  -1.4973  -1.3683  -1.3440  -1.2275  -1.2088
    -1.1173  -1.0433  -0.9714  -0.9100  -0.8496  -0.8251  -0.8147  -0.7401
    -0.6721  -0.6071  -0.5028  -0.4319  -0.4098  -0.3938  -0.2976  -0.2767
    -0.2209  -0.2151  -0.1740  -0.1446  -0.1116  -0.0765  -0.0399  -0.0072

     occupation numbers 
     1.0000   1.0000   1.0000   1.0000   1.0000   1.0000   1.0000   1.0000
     1.0000   1.0000   1.0000   1.0000   1.0000   1.0000   1.0000   1.0000
     1.0000   1.0000   1.0000   1.0000   1.0000   1.0000   1.0000   1.0000
     1.0000   1.0000   1.0000   1.0000   1.0000   1.0000   1.0000   1.0000
     1.0000   1.0000   1.0000   1.0000   1.0000   1.0000   1.0000   1.0000
     1.0000   1.0000   1.0000   1.0000   1.0000   1.0000   1.0000   1.0000
     1.0000   1.0000   1.0000   1.0000   1.0000   1.0000   1.0000   1.0000
     1.0000   1.0000   1.0000   1.0000   1.0000   1.0000   1.0000   1.0000

          k =-0.3835-0.4000-0.2002 ( 23841 PWs)   bands (ev):

   -13.4712 -13.4632 -13.4199 -13.4121 -13.0044 -13.0018 -12.9865 -12.9798
   -12.8906 -12.8836 -12.8041 -12.7880 -12.7662 -12.7509 -12.7203 -12.7137
    -4.0272  -4.0153  -3.8956  -3.8849  -2.6120  -2.5993  -2.5762  -2.5376
    -2.3597  -2.3157  -2.2516  -2.1830  -2.1046  -2.0947  -1.9353  -1.8989
    -1.7983  -1.7469  -1.5272  -1.4750  -1.3889  -1.3824  -1.2220  -1.1855
    -1.1329  -1.0586  -0.9661  -0.8899  -0.8483  -0.8162  -0.7866  -0.7711
    -0.6664  -0.5894  -0.4867  -0.4393  -0.4151  -0.4110  -0.3004  -0.2709
    -0.2263  -0.2101  -0.1899  -0.1564  -0.0952  -0.0693  -0.0432  -0.0089

     occupation numbers 
     1.0000   1.0000   1.0000   1.0000   1.0000   1.0000   1.0000   1.0000
     1.0000   1.0000   1.0000   1.0000   1.0000   1.0000   1.0000   1.0000
     1.0000   1.0000   1.0000   1.0000   1.0000   1.0000   1.0000   1.0000
     1.0000   1.0000   1.0000   1.0000   1.0000   1.0000   1.0000   1.0000
     1.0000   1.0000   1.0000   1.0000   1.0000   1.0000   1.0000   1.0000
     1.0000   1.0000   1.0000   1.0000   1.0000   1.0000   1.0000   1.0000
     1.0000   1.0000   1.0000   1.0000   1.0000   1.0000   1.0000   1.0000
     1.0000   1.0000   1.0000   1.0000   1.0000   1.0000   1.0000   1.0000

          k =-0.3605-0.4000 0.2002 ( 23818 PWs)   bands (ev):

   -13.4752 -13.4580 -13.4218 -13.4110 -13.0068 -12.9975 -12.9885 -12.9779
   -12.8934 -12.8866 -12.7940 -12.7888 -12.7633 -12.7578 -12.7206 -12.7136
    -4.0280  -4.0146  -3.8978  -3.8824  -2.6033  -2.5942  -2.5929  -2.5352
    -2.3518  -2.3313  -2.2393  -2.1932  -2.1040  -2.0840  -1.9463  -1.9082
    -1.7799  -1.7521  -1.5320  -1.4897  -1.3742  -1.3613  -1.2402  -1.1864
    -1.0919  -1.0802  -0.9969  -0.8993  -0.8416  -0.8036  -0.7795  -0.7527
    -0.6630  -0.6044  -0.4879  -0.4417  -0.4276  -0.3915  -0.2998  -0.2679
    -0.2537  -0.2206  -0.1814  -0.1514  -0.0846  -0.0774  -0.0460  -0.0006

     occupation numbers 
     1.0000   1.0000   1.0000   1.0000   1.0000   1.0000   1.0000   1.0000
     1.0000   1.0000   1.0000   1.0000   1.0000   1.0000   1.0000   1.0000
     1.0000   1.0000   1.0000   1.0000   1.0000   1.0000   1.0000   1.0000
     1.0000   1.0000   1.0000   1.0000   1.0000   1.0000   1.0000   1.0000
     1.0000   1.0000   1.0000   1.0000   1.0000   1.0000   1.0000   1.0000
     1.0000   1.0000   1.0000   1.0000   1.0000   1.0000   1.0000   1.0000
     1.0000   1.0000   1.0000   1.0000   1.0000   1.0000   1.0000   1.0000
     1.0000   1.0000   1.0000   1.0000   1.0000   1.0000   1.0000   1.0000

          k =-0.3662-0.4000 0.1001 ( 23833 PWs)   bands (ev):

   -13.4829 -13.4534 -13.4189 -13.4095 -13.0135 -13.0044 -12.9816 -12.9730
   -12.8968 -12.8787 -12.8084 -12.7875 -12.7635 -12.7504 -12.7200 -12.7132
    -4.0282  -4.0165  -3.8972  -3.8811  -2.6104  -2.6015  -2.5833  -2.5168
    -2.3566  -2.3260  -2.2674  -2.2366  -2.0710  -2.0600  -1.9429  -1.9088
    -1.7691  -1.7523  -1.5470  -1.5116  -1.3466  -1.3173  -1.2669  -1.1935
    -1.0831  -1.0336  -1.0253  -0.9588  -0.8362  -0.8041  -0.7594  -0.7376
    -0.6652  -0.6412  -0.5036  -0.4393  -0.4083  -0.3779  -0.3043  -0.2764
    -0.2495  -0.2255  -0.1700  -0.1439  -0.0979  -0.0792  -0.0445   0.0044

     occupation numbers 
     1.0000   1.0000   1.0000   1.0000   1.0000   1.0000   1.0000   1.0000
     1.0000   1.0000   1.0000   1.0000   1.0000   1.0000   1.0000   1.0000
     1.0000   1.0000   1.0000   1.0000   1.0000   1.0000   1.0000   1.0000
     1.0000   1.0000   1.0000   1.0000   1.0000   1.0000   1.0000   1.0000
     1.0000   1.0000   1.0000   1.0000   1.0000   1.0000   1.0000   1.0000
     1.0000   1.0000   1.0000   1.0000   1.0000   1.0000   1.0000   1.0000
     1.0000   1.0000   1.0000   1.0000   1.0000   1.0000   1.0000   1.0000
     1.0000   1.0000   1.0000   1.0000   1.0000   1.0000   1.0000   1.0000

     highest occupied level (ev):     0.0779

!    total energy              =    -501.60769000 Ry
     estimated scf accuracy    <       0.00000050 Ry

     The total energy is the sum of the following terms:
     one-electron contribution =    -127.07584785 Ry
     hartree contribution      =     109.55938649 Ry
     xc contribution           =    -102.59801342 Ry
     ewald contribution        =    -381.49321522 Ry

     convergence has been achieved in   8 iterations

     Forces acting on atoms (cartesian axes, Ry/au):

     atom    1 type  1   force =    -0.00086541    0.00082287    0.00205707
     atom    2 type  1   force =     0.00086541    0.00082287   -0.00205707
     atom    3 type  1   force =     0.00086541   -0.00082287   -0.00205707
     atom    4 type  1   force =    -0.00086541   -0.00082287    0.00205707
     atom    5 type  2   force =    -0.00062596   -0.00212482    0.00217084
     atom    6 type  2   force =     0.00062596   -0.00212482   -0.00217084
     atom    7 type  2   force =     0.00062596    0.00212482   -0.00217084
     atom    8 type  2   force =    -0.00062596    0.00212482    0.00217084
     atom    9 type  3   force =    -0.00028775    0.00642101    0.01335772
     atom   10 type  3   force =     0.00028775    0.00642101   -0.01335772
     atom   11 type  3   force =     0.00028775   -0.00642101   -0.01335772
     atom   12 type  3   force =    -0.00028775   -0.00642101    0.01335772
     atom   13 type  3   force =     0.00556271   -0.01278915    0.00169928
     atom   14 type  3   force =    -0.00556271   -0.01278915   -0.00169928
     atom   15 type  3   force =    -0.00556271    0.01278915   -0.00169928
     atom   16 type  3   force =     0.00556271    0.01278915    0.00169928
     atom   17 type  3   force =     0.01100305    0.00676479   -0.00940579
     atom   18 type  3   force =    -0.01100305    0.00676479    0.00940579
     atom   19 type  3   force =    -0.01100305   -0.00676479    0.00940579
     atom   20 type  3   force =     0.01100305   -0.00676479   -0.00940579
     atom   21 type  3   force =    -0.01354319    0.00060948   -0.00734993
     atom   22 type  3   force =     0.01354319    0.00060948    0.00734993
     atom   23 type  3   force =     0.01354319   -0.00060948    0.00734993
     atom   24 type  3   force =    -0.01354319   -0.00060948   -0.00734993
     The non-local contrib.  to forces
     atom    1 type  1   force =    -0.01738972   -0.01340051   -0.00098862
     atom    2 type  1   force =     0.01738972   -0.01340051    0.00098862
     atom    3 type  1   force =     0.01738972    0.01340051    0.00098862
     atom    4 type  1   force =    -0.01738972    0.01340051   -0.00098862
     atom    5 type  2   force =     0.00088694    0.01438840   -0.03004882
     atom    6 type  2   force =    -0.00088694    0.01438840    0.03004882
     atom    7 type  2   force =    -0.00088694   -0.01438840    0.03004882
     atom    8 type  2   force =     0.00088694   -0.01438840   -0.03004882
     atom    9 type  3   force =     0.03958267   -0.13743999   -0.14110025
     atom   10 type  3   force =    -0.03958267   -0.13743999    0.14110025
     atom   11 type  3   force =    -0.03958267    0.13743999    0.14110025
     atom   12 type  3   force =     0.03958267    0.13743999   -0.14110025
     atom   13 type  3   force =    -0.01319573    0.19162421   -0.01262425
     atom   14 type  3   force =     0.01319573    0.19162421    0.01262425
     atom   15 type  3   force =     0.01319573   -0.19162421    0.01262425
     atom   16 type  3   force =    -0.01319573   -0.19162421   -0.01262425
     atom   17 type  3   force =    -0.14346054   -0.08501369    0.03802504
     atom   18 type  3   force =     0.14346054   -0.08501369   -0.03802504
     atom   19 type  3   force =     0.14346054    0.08501369   -0.03802504
     atom   20 type  3   force =    -0.14346054    0.08501369    0.03802504
     atom   21 type  3   force =     0.11692182   -0.06309538    0.14646281
     atom   22 type  3   force =    -0.11692182   -0.06309538   -0.14646281
     atom   23 type  3   force =    -0.11692182    0.06309538   -0.14646281
     atom   24 type  3   force =     0.11692182    0.06309538    0.14646281
     The ionic contribution  to forces
     atom    1 type  1   force =    -0.02423539   -0.05007099   -0.11403160
     atom    2 type  1   force =     0.02423539   -0.05007099    0.11403160
     atom    3 type  1   force =     0.02423539    0.05007099    0.11403160
     atom    4 type  1   force =    -0.02423539    0.05007099   -0.11403160
     atom    5 type  2   force =    -0.18827817    0.26150167   -0.19527978
     atom    6 type  2   force =     0.18827817    0.26150167    0.19527978
     atom    7 type  2   force =     0.18827817   -0.26150167    0.19527978
     atom    8 type  2   force =    -0.18827817   -0.26150167   -0.19527978
     atom    9 type  3   force =    -0.15118188    2.01723636    2.20437328
     atom   10 type  3   force =     0.15118188    2.01723636   -2.20437328
     atom   11 type  3   force =     0.15118188   -2.01723636   -2.20437328
     atom   12 type  3   force =    -0.15118188   -2.01723636    2.20437328
     atom   13 type  3   force =     0.32252200   -3.04795898   -0.01908978
     atom   14 type  3   force =    -0.32252200   -3.04795898    0.01908978
     atom   15 type  3   force =    -0.32252200    3.04795898    0.01908978
     atom   16 type  3   force =     0.32252200    3.04795898   -0.01908978
     atom   17 type  3   force =     1.72511832    1.44022468   -1.10806173
     atom   18 type  3   force =    -1.72511832    1.44022468    1.10806173
     atom   19 type  3   force =    -1.72511832   -1.44022468    1.10806173
     atom   20 type  3   force =     1.72511832   -1.44022468   -1.10806173
     atom   21 type  3   force =    -1.95880577    0.42461295   -1.37177756
     atom   22 type  3   force =     1.95880577    0.42461295    1.37177756
     atom   23 type  3   force =     1.95880577   -0.42461295    1.37177756
     atom   24 type  3   force =    -1.95880577   -0.42461295   -1.37177756
     The local contribution  to forces
     atom    1 type  1   force =     0.03812679    0.06227194    0.11687432
     atom    2 type  1   force =    -0.03812679    0.06227194   -0.11687432
     atom    3 type  1   force =    -0.03812679   -0.06227194   -0.11687432
     atom    4 type  1   force =     0.03812679   -0.06227194    0.11687432
     atom    5 type  2   force =     0.18676195   -0.27802234    0.22750758
     atom    6 type  2   force =    -0.18676195   -0.27802234   -0.22750758
     atom    7 type  2   force =    -0.18676195    0.27802234   -0.22750758
     atom    8 type  2   force =     0.18676195    0.27802234    0.22750758
     atom    9 type  3   force =     0.11125021   -1.87359883   -2.05030613
     atom   10 type  3   force =    -0.11125021   -1.87359883    2.05030613
     atom   11 type  3   force =    -0.11125021    1.87359883    2.05030613
     atom   12 type  3   force =     0.11125021    1.87359883   -2.05030613
     atom   13 type  3   force =    -0.30391232    2.84394587    0.03344439
     atom   14 type  3   force =     0.30391232    2.84394587   -0.03344439
     atom   15 type  3   force =     0.30391232   -2.84394587   -0.03344439
     atom   16 type  3   force =    -0.30391232   -2.84394587    0.03344439
     atom   17 type  3   force =    -1.57101461   -1.34865165    1.06090303
     atom   18 type  3   force =     1.57101461   -1.34865165   -1.06090303
     atom   19 type  3   force =     1.57101461    1.34865165   -1.06090303
     atom   20 type  3   force =    -1.57101461    1.34865165    1.06090303
     atom   21 type  3   force =     1.82872701   -0.36096488    1.21822365
     atom   22 type  3   force =    -1.82872701   -0.36096488   -1.21822365
     atom   23 type  3   force =    -1.82872701    0.36096488   -1.21822365
     atom   24 type  3   force =     1.82872701    0.36096488    1.21822365
     The core correction contribution to forces
     atom    1 type  1   force =     0.00263735    0.00202165    0.00021562
     atom    2 type  1   force =    -0.00263735    0.00202165   -0.00021562
     atom    3 type  1   force =    -0.00263735   -0.00202165   -0.00021562
     atom    4 type  1   force =     0.00263735   -0.00202165    0.00021562
     atom    5 type  2   force =     0.00000000    0.00000000    0.00000000
     atom    6 type  2   force =     0.00000000    0.00000000    0.00000000
     atom    7 type  2   force =     0.00000000    0.00000000    0.00000000
     atom    8 type  2   force =     0.00000000    0.00000000    0.00000000
     atom    9 type  3   force =     0.00000000    0.00000000    0.00000000
     atom   10 type  3   force =     0.00000000    0.00000000    0.00000000
     atom   11 type  3   force =     0.00000000    0.00000000    0.00000000
     atom   12 type  3   force =     0.00000000    0.00000000    0.00000000
     atom   13 type  3   force =     0.00000000    0.00000000    0.00000000
     atom   14 type  3   force =     0.00000000    0.00000000    0.00000000
     atom   15 type  3   force =     0.00000000    0.00000000    0.00000000
     atom   16 type  3   force =     0.00000000    0.00000000    0.00000000
     atom   17 type  3   force =     0.00000000    0.00000000    0.00000000
     atom   18 type  3   force =     0.00000000    0.00000000    0.00000000
     atom   19 type  3   force =     0.00000000    0.00000000    0.00000000
     atom   20 type  3   force =     0.00000000    0.00000000    0.00000000
     atom   21 type  3   force =     0.00000000    0.00000000    0.00000000
     atom   22 type  3   force =     0.00000000    0.00000000    0.00000000
     atom   23 type  3   force =     0.00000000    0.00000000    0.00000000
     atom   24 type  3   force =     0.00000000    0.00000000    0.00000000
     The Hubbard contrib.    to forces
     atom    1 type  1   force =     0.00000000    0.00000000    0.00000000
     atom    2 type  1   force =     0.00000000    0.00000000    0.00000000
     atom    3 type  1   force =     0.00000000    0.00000000    0.00000000
     atom    4 type  1   force =     0.00000000    0.00000000    0.00000000
     atom    5 type  2   force =     0.00000000    0.00000000    0.00000000
     atom    6 type  2   force =     0.00000000    0.00000000    0.00000000
     atom    7 type  2   force =     0.00000000    0.00000000    0.00000000
     atom    8 type  2   force =     0.00000000    0.00000000    0.00000000
     atom    9 type  3   force =     0.00000000    0.00000000    0.00000000
     atom   10 type  3   force =     0.00000000    0.00000000    0.00000000
     atom   11 type  3   force =     0.00000000    0.00000000    0.00000000
     atom   12 type  3   force =     0.00000000    0.00000000    0.00000000
     atom   13 type  3   force =     0.00000000    0.00000000    0.00000000
     atom   14 type  3   force =     0.00000000    0.00000000    0.00000000
     atom   15 type  3   force =     0.00000000    0.00000000    0.00000000
     atom   16 type  3   force =     0.00000000    0.00000000    0.00000000
     atom   17 type  3   force =     0.00000000    0.00000000    0.00000000
     atom   18 type  3   force =     0.00000000    0.00000000    0.00000000
     atom   19 type  3   force =     0.00000000    0.00000000    0.00000000
     atom   20 type  3   force =     0.00000000    0.00000000    0.00000000
     atom   21 type  3   force =     0.00000000    0.00000000    0.00000000
     atom   22 type  3   force =     0.00000000    0.00000000    0.00000000
     atom   23 type  3   force =     0.00000000    0.00000000    0.00000000
     atom   24 type  3   force =     0.00000000    0.00000000    0.00000000
     The SCF correction term to forces
     atom    1 type  1   force =    -0.00000445    0.00000078   -0.00001266
     atom    2 type  1   force =     0.00000445    0.00000078    0.00001266
     atom    3 type  1   force =     0.00000445   -0.00000078    0.00001266
     atom    4 type  1   force =    -0.00000445   -0.00000078   -0.00001266
     atom    5 type  2   force =     0.00000332    0.00000745   -0.00000814
     atom    6 type  2   force =    -0.00000332    0.00000745    0.00000814
     atom    7 type  2   force =    -0.00000332   -0.00000745    0.00000814
     atom    8 type  2   force =     0.00000332   -0.00000745   -0.00000814
     atom    9 type  3   force =     0.00006125    0.00022348    0.00039083
     atom   10 type  3   force =    -0.00006125    0.00022348   -0.00039083
     atom   11 type  3   force =    -0.00006125   -0.00022348   -0.00039083
     atom   12 type  3   force =     0.00006125   -0.00022348    0.00039083
     atom   13 type  3   force =     0.00014875   -0.00040024   -0.00003108
     atom   14 type  3   force =    -0.00014875   -0.00040024    0.00003108
     atom   15 type  3   force =    -0.00014875    0.00040024    0.00003108
     atom   16 type  3   force =     0.00014875    0.00040024   -0.00003108
     atom   17 type  3   force =     0.00035987    0.00020545   -0.00027212
     atom   18 type  3   force =    -0.00035987    0.00020545    0.00027212
     atom   19 type  3   force =    -0.00035987   -0.00020545    0.00027212
     atom   20 type  3   force =     0.00035987   -0.00020545   -0.00027212
     atom   21 type  3   force =    -0.00038625    0.00005679   -0.00025883
     atom   22 type  3   force =     0.00038625    0.00005679    0.00025883
     atom   23 type  3   force =     0.00038625   -0.00005679    0.00025883
     atom   24 type  3   force =    -0.00038625   -0.00005679   -0.00025883

     Total force =     0.060845     Total SCF correction =     0.001850


     Computing stress (Cartesian axis) and pressure

          total   stress  (Ry/bohr**3)                   (kbar)     P=       11.60
   0.00008130   0.00000000   0.00000254           11.96        0.00        0.37
   0.00000000   0.00007841   0.00000000            0.00       11.53        0.00
   0.00000254   0.00000000   0.00007682            0.37        0.00       11.30

     kinetic stress (kbar)   4585.08      0.00     -9.85
                                0.00   4631.96      0.00
                               -9.85      0.00   4589.83

     local   stress (kbar)  -6141.73      0.00    -92.12
                                0.00  -5379.59     -0.00
                              -92.12     -0.00  -5841.97

     nonloc. stress (kbar)   5717.95      0.00      1.27
                                0.00   5716.27      0.00
                                1.27      0.00   5717.79

     hartree stress (kbar)   1463.08      0.00     24.13
                                0.00   1225.89     -0.00
                               24.13     -0.00   1352.43

     exc-cor stress (kbar)  -1156.06      0.00      0.25
                                0.00  -1157.20     -0.00
                                0.25     -0.00  -1156.60

     corecor stress (kbar)    -20.03      0.00     -0.02
                                0.00    -20.03     -0.00
                               -0.02     -0.00    -19.84

     ewald   stress (kbar)  -4436.33      0.00     76.71
                                0.00  -5005.77      0.00
                               76.71      0.00  -4630.32

     hubbard stress (kbar)      0.00      0.00      0.00
                                0.00      0.00      0.00
                                0.00      0.00      0.00

     DFT-D   stress (kbar)      0.00      0.00      0.00
                                0.00      0.00      0.00
                                0.00      0.00      0.00

     XDM     stress (kbar)      0.00      0.00      0.00
                                0.00      0.00      0.00
                                0.00      0.00      0.00

     dft-nl  stress (kbar)      0.00      0.00      0.00
                                0.00      0.00      0.00
                                0.00      0.00      0.00

     TS-vdW  stress (kbar)      0.00      0.00      0.00
                                0.00      0.00      0.00
                                0.00      0.00      0.00

     MDB     stress (kbar)      0.00      0.00      0.00
                                0.00      0.00      0.00
                                0.00      0.00      0.00

     3D-RISM stress (kbar)      0.00      0.00      0.00
                                0.00      0.00      0.00
                                0.00      0.00      0.00


     Writing all to output data dir ./out/LAC.save/ :
     XML data file, charge density, pseudopotentials, collected wavefunctions

     init_run     :    483.70s CPU    487.13s WALL (       1 calls)
     electrons    :   4241.75s CPU   4358.59s WALL (       1 calls)
     forces       :     55.94s CPU     56.09s WALL (       1 calls)
     stress       :    106.83s CPU    107.10s WALL (       1 calls)

     Called by init_run:
     wfcinit      :    481.14s CPU    484.36s WALL (       1 calls)
     wfcinit:atom :      0.29s CPU      0.70s WALL (      39 calls)
     wfcinit:wfcr :    478.16s CPU    480.74s WALL (      39 calls)
     potinit      :      1.12s CPU      1.25s WALL (       1 calls)
     hinit0       :      1.04s CPU      1.08s WALL (       1 calls)

     Called by electrons:
     c_bands      :   3512.78s CPU   3625.34s WALL (       9 calls)
     sum_band     :    724.02s CPU    727.23s WALL (       9 calls)
     v_of_rho     :      4.21s CPU      4.71s WALL (       9 calls)
     v_h          :      0.33s CPU      0.43s WALL (       9 calls)
     v_xc         :      4.69s CPU      5.18s WALL (      11 calls)
     mix_rho      :      0.47s CPU      0.50s WALL (       9 calls)

     Called by c_bands:
     init_us_2    :      3.30s CPU      3.39s WALL (     819 calls)
     cegterg      :   3505.99s CPU   3520.79s WALL (     351 calls)

     Called by sum_band:
     sum_band:wei :      0.00s CPU      0.00s WALL (       9 calls)
     sum_band:loo :    723.29s CPU    726.10s WALL (       9 calls)
     sum_band:buf :      0.66s CPU      1.05s WALL (     351 calls)
     sum_band:ini :      1.40s CPU      1.45s WALL (     351 calls)

     Called by *egterg:
     cdiaghg      :      6.40s CPU      6.44s WALL (    1092 calls)
     cegterg:over :     16.65s CPU     16.74s WALL (     780 calls)
     cegterg:upda :      7.81s CPU      7.88s WALL (     780 calls)
     cegterg:last :     12.42s CPU     12.56s WALL (     702 calls)
     h_psi        :   3912.34s CPU   3929.29s WALL (    1170 calls)
     g_psi        :      2.17s CPU      2.17s WALL (     780 calls)

     Called by h_psi:
     h_psi:calbec :     29.82s CPU     30.08s WALL (    1170 calls)
     vloc_psi     :   3872.25s CPU   3888.42s WALL (    1170 calls)
     add_vuspsi   :      9.07s CPU      9.14s WALL (    1170 calls)

     General routines
     calbec       :    141.65s CPU    141.97s WALL (    1365 calls)
     fft          :      4.54s CPU      4.87s WALL (     131 calls)
     ffts         :      0.96s CPU      0.97s WALL (      18 calls)
     fftw         :   4489.45s CPU   4506.91s WALL (  160654 calls)
     interpolate  :      0.92s CPU      0.95s WALL (       9 calls)

     Parallel routines

     PWSCF        :      1h21m CPU      1h28m WALL


   This run was terminated on:  23:22: 3  10Nov2024            

=------------------------------------------------------------------------------=
   JOB DONE.
=------------------------------------------------------------------------------=
