### Running on host: gra740.graham.sharcnet

     Program PWSCF v.7.3.1 starts on 10Nov2024 at 20:16: 9 

     This program is part of the open-source Quantum ESPRESSO suite
     for quantum simulation of materials; please cite
         "P. Giannozzi et al., J. Phys.:Condens. Matter 21 395502 (2009);
         "P. Giannozzi et al., J. Phys.:Condens. Matter 29 465901 (2017);
         "P. Giannozzi et al., J. Chem. Phys. 152 154105 (2020);
          URL http://www.quantum-espresso.org", 
     in publications or presentations arising from this work. More details at
     http://www.quantum-espresso.org/quote

     Parallel version (MPI & OpenMP), running on       4 processor cores
     Number of MPI processes:                 4
     Threads/MPI process:                     1

     MPI processes distributed on     1 nodes
     64176 MiB available memory on the printing compute node when the environment starts

     Reading input from LAC_scf_ecutwfc-40.in

     Current dimensions of program PWSCF are:
     Max number of different atomic species (ntypx) = 10
     Max number of k-points (npk) =  40000
     Max angular momentum in pseudopotentials (lmaxx) =  4
     file Li.pbe-tm-gipaw-dc.UPF: wavefunction(s)  2S 2P 3S 3P renormalized
     WARNING: atomic wfc #  3 for atom typeAl has zero norm
     WARNING: atomic wfc #  4 for atom typeAl has zero norm
     Message from routine setup:
     using ibrav=0 with symmetry is DISCOURAGED, use correct ibrav instead

     R & G space division:  proc/nbgrp/npool/nimage =       4
     Subspace diagonalization in iterative solution of the eigenvalue problem:
     a serial algorithm will be used


     Parallelization info
     --------------------
     sticks:   dense  smooth     PW     G-vecs:    dense   smooth      PW
     Min        1940     518    139               247428    34084    4879
     Max        1941     519    140               247431    34089    4882
     Sum        7761    2073    559               989717   136343   19519

     Using Slab Decomposition



     bravais-lattice index     =            0
     lattice parameter (alat)  =      12.2889  a.u.
     unit-cell volume          =    3987.9110 (a.u.)^3
     number of atoms/cell      =           24
     number of atomic types    =            3
     number of electrons       =       128.00
     number of Kohn-Sham states=           64
     kinetic-energy cutoff     =      40.0000  Ry
     charge density cutoff     =     600.0000  Ry
     scf convergence threshold =      1.0E-06
     mixing beta               =       0.4000
     number of iterations used =            8  plain     mixing
     Exchange-correlation=  SLA  PW   PBX  PBC
                           (   1   4   3   4   0   0   0)

     celldm(1)=  12.288889  celldm(2)=   0.000000  celldm(3)=   0.000000
     celldm(4)=   0.000000  celldm(5)=   0.000000  celldm(6)=   0.000000

     crystal axes: (cart. coord. in units of alat)
               a(1) = (  -0.000000  -1.000000  -0.000000 )  
               a(2) = (  -1.075255   0.000000   0.061999 )  
               a(3) = (   0.000000   0.000000  -1.998462 )  

     reciprocal axes: (cart. coord. in units 2 pi/alat)
               b(1) = ( -0.000000 -1.000000 -0.000000 )  
               b(2) = ( -0.930012  0.000000  0.000000 )  
               b(3) = ( -0.028852  0.000000 -0.500385 )  


     PseudoPot. # 1 for Li read from file:
     /home/cgurwell/projects/rrg-ravh011/cgurwell/pseudo/Li.pbe-tm-gipaw-dc.UPF
     MD5 check sum: 258bf1e32d815cbe0990be85d5d6a6e5
     Pseudo is Norm-conserving + core correction, Zval =  1.0
     Generated by new atomic code, or converted to UPF format
     Using radial grid of 1371 points,  1 beta functions with: 
                l(1) =   0

     PseudoPot. # 2 for Al read from file:
     /home/cgurwell/projects/rrg-ravh011/cgurwell/pseudo/Al.pbe-tm-gipaw-dc.UPF
     MD5 check sum: efdf9c81b1c08458edd46fe92d869955
     Pseudo is Norm-conserving, Zval =  3.0
     Generated by new atomic code, or converted to UPF format
     Using radial grid of 1519 points,  2 beta functions with: 
                l(1) =   0
                l(2) =   1

     PseudoPot. # 3 for Cl read from file:
     /home/cgurwell/projects/rrg-ravh011/cgurwell/pseudo/Cl.pbe-tm-gipaw.UPF
     MD5 check sum: 6263502ce953d769893a136fffc16e2a
     Pseudo is Norm-conserving, Zval =  7.0
     Generated by new atomic code, or converted to UPF format
     Using radial grid of 1157 points,  2 beta functions with: 
                l(1) =   0
                l(2) =   1

     atomic species   valence    mass     pseudopotential
     Li                1.00     6.94100     Li( 1.00)
     Al                3.00    26.98154     Al( 1.00)
     Cl                7.00    35.45300     Cl( 1.00)

      4 Sym. Ops., with inversion, found ( 2 have fractional translation)


                                    s                        frac. trans.

      isym =  1     identity                                     

 cryst.   s( 1) = (     1          0          0      )
                  (     0          1          0      )
                  (     0          0          1      )

 cart.    s( 1) = (  1.0000000  0.0000000  0.0000000 )
                  (  0.0000000  1.0000000  0.0000000 )
                  (  0.0000000  0.0000000  1.0000000 )


      isym =  2     180 deg rotation - cart. axis [0,1,0]        

 cryst.   s( 2) = (     1          0          0      )    f =( -0.5000000 )
                  (     0         -1          0      )       (  0.0000000 )
                  (     0          0         -1      )       (  0.5000000 )

 cart.    s( 2) = ( -1.0000000  0.0000000  0.0000000 )    f =(  0.0000000 )
                  (  0.0000000  1.0000000  0.0000000 )       (  0.5000000 )
                  ( -0.0000000  0.0000000 -1.0000000 )       ( -0.9992311 )


      isym =  3     inversion                                    

 cryst.   s( 3) = (    -1          0          0      )
                  (     0         -1          0      )
                  (     0          0         -1      )

 cart.    s( 3) = ( -1.0000000  0.0000000  0.0000000 )
                  (  0.0000000 -1.0000000  0.0000000 )
                  ( -0.0000000  0.0000000 -1.0000000 )


      isym =  4     inv. 180 deg rotation - cart. axis [0,1,0]   

 cryst.   s( 4) = (    -1          0          0      )    f =(  0.5000000 )
                  (     0          1          0      )       (  0.0000000 )
                  (     0          0          1      )       ( -0.5000000 )

 cart.    s( 4) = (  1.0000000  0.0000000  0.0000000 )    f =( -0.0000000 )
                  (  0.0000000 -1.0000000  0.0000000 )       ( -0.5000000 )
                  (  0.0000000  0.0000000  1.0000000 )       (  0.9992311 )


   Cartesian axes

     site n.     atom                  positions (alat units)
         1        Li     tau(   1) = (  -0.9056877  -0.4850000  -0.2183702  )
         2        Li     tau(   2) = (  -0.1695678  -0.9850000  -0.7188621  )
         3        Li     tau(   3) = (  -0.1695678  -0.5150000  -1.7180932  )
         4        Li     tau(   4) = (  -0.9056877  -0.0150000  -1.2176013  )
         5        Al     tau(   5) = (  -0.3162326  -0.8217000  -1.1827820  )
         6        Al     tau(   6) = (  -0.7590228  -0.3217000  -1.7529125  )
         7        Al     tau(   7) = (  -0.7590228  -0.1783000  -0.7536814  )
         8        Al     tau(   8) = (  -0.3162326  -0.6783000  -0.1835509  )
         9        Cl     tau(   9) = (  -0.3292432  -0.6832000  -0.8869788  )
        10        Cl     tau(  10) = (  -0.7460122  -0.1832000  -0.0502534  )
        11        Cl     tau(  11) = (  -0.7460122  -0.3168000  -1.0494846  )
        12        Cl     tau(  12) = (  -0.3292432  -0.8168000  -1.8862100  )
        13        Cl     tau(  13) = (  -0.2058039  -0.1281000  -1.1300747  )
        14        Cl     tau(  14) = (  -0.8694515  -0.6281000  -1.8056198  )
        15        Cl     tau(  15) = (  -0.8694515  -0.8719000  -0.8063887  )
        16        Cl     tau(  16) = (  -0.2058039  -0.3719000  -0.1308436  )
        17        Cl     tau(  17) = (  -0.0801065  -0.6812000  -1.3666060  )
        18        Cl     tau(  18) = (  -0.9951489  -0.1812000  -1.5690886  )
        19        Cl     tau(  19) = (  -0.9951489  -0.3188000  -0.5698574  )
        20        Cl     tau(  20) = (  -0.0801065  -0.8188000  -0.3673748  )
        21        Cl     tau(  21) = (  -0.6024656  -0.8140000  -1.3383055  )
        22        Cl     tau(  22) = (  -0.4727898  -0.3140000  -1.5973890  )
        23        Cl     tau(  23) = (  -0.4727898  -0.1860000  -0.5981579  )
        24        Cl     tau(  24) = (  -0.6024656  -0.6860000  -0.3390744  )

   Crystallographic axes

     site n.     atom                  positions (cryst. coord.)
         1        Li     tau(   1) = (  0.4850000  0.8423000  0.1354000  )
         2        Li     tau(   2) = (  0.9850000  0.1577000  0.3646000  )
         3        Li     tau(   3) = (  0.5150000  0.1577000  0.8646000  )
         4        Li     tau(   4) = (  0.0150000  0.8423000  0.6354000  )
         5        Al     tau(   5) = (  0.8217000  0.2941000  0.6009700  )
         6        Al     tau(   6) = (  0.3217000  0.7059000  0.8990300  )
         7        Al     tau(   7) = (  0.1783000  0.7059000  0.3990300  )
         8        Al     tau(   8) = (  0.6783000  0.2941000  0.1009700  )
         9        Cl     tau(   9) = (  0.6832000  0.3062000  0.4533300  )
        10        Cl     tau(  10) = (  0.1832000  0.6938000  0.0466700  )
        11        Cl     tau(  11) = (  0.3168000  0.6938000  0.5466700  )
        12        Cl     tau(  12) = (  0.8168000  0.3062000  0.9533300  )
        13        Cl     tau(  13) = (  0.1281000  0.1914000  0.5714100  )
        14        Cl     tau(  14) = (  0.6281000  0.8086000  0.9285900  )
        15        Cl     tau(  15) = (  0.8719000  0.8086000  0.4285900  )
        16        Cl     tau(  16) = (  0.3719000  0.1914000  0.0714100  )
        17        Cl     tau(  17) = (  0.6812000  0.0745000  0.6861400  )
        18        Cl     tau(  18) = (  0.1812000  0.9255000  0.8138600  )
        19        Cl     tau(  19) = (  0.3188000  0.9255000  0.3138600  )
        20        Cl     tau(  20) = (  0.8188000  0.0745000  0.1861400  )
        21        Cl     tau(  21) = (  0.8140000  0.5603000  0.6870500  )
        22        Cl     tau(  22) = (  0.3140000  0.4397000  0.8129500  )
        23        Cl     tau(  23) = (  0.1860000  0.4397000  0.3129500  )
        24        Cl     tau(  24) = (  0.6860000  0.5603000  0.1870500  )

     number of k points=    39
                       cart. coord. in units 2pi/alat
        k(    1) = (  -0.0000000   0.0000000   0.0000000), wk =   0.0160000
        k(    2) = (  -0.0057704   0.0000000  -0.1000769), wk =   0.0320000
        k(    3) = (  -0.0115408   0.0000000  -0.2001539), wk =   0.0320000
        k(    4) = (  -0.1860023   0.0000000   0.0000000), wk =   0.0320000
        k(    5) = (  -0.1917727   0.0000000  -0.1000769), wk =   0.0320000
        k(    6) = (  -0.1975431   0.0000000  -0.2001539), wk =   0.0320000
        k(    7) = (  -0.1744615   0.0000000   0.2001539), wk =   0.0320000
        k(    8) = (  -0.1802319   0.0000000   0.1000769), wk =   0.0320000
        k(    9) = (  -0.3720046   0.0000000   0.0000000), wk =   0.0320000
        k(   10) = (  -0.3777750   0.0000000  -0.1000769), wk =   0.0320000
        k(   11) = (  -0.3835454   0.0000000  -0.2001539), wk =   0.0320000
        k(   12) = (  -0.3604638   0.0000000   0.2001539), wk =   0.0320000
        k(   13) = (  -0.3662342   0.0000000   0.1000769), wk =   0.0320000
        k(   14) = (  -0.0000000  -0.2000000   0.0000000), wk =   0.0320000
        k(   15) = (  -0.0057704  -0.2000000  -0.1000769), wk =   0.0640000
        k(   16) = (  -0.0115408  -0.2000000  -0.2001539), wk =   0.0640000
        k(   17) = (  -0.1860023  -0.2000000   0.0000000), wk =   0.0640000
        k(   18) = (  -0.1917727  -0.2000000  -0.1000769), wk =   0.0640000
        k(   19) = (  -0.1975431  -0.2000000  -0.2001539), wk =   0.0640000
        k(   20) = (  -0.1744615  -0.2000000   0.2001539), wk =   0.0640000
        k(   21) = (  -0.1802319  -0.2000000   0.1000769), wk =   0.0640000
        k(   22) = (  -0.3720046  -0.2000000   0.0000000), wk =   0.0640000
        k(   23) = (  -0.3777750  -0.2000000  -0.1000769), wk =   0.0640000
        k(   24) = (  -0.3835454  -0.2000000  -0.2001539), wk =   0.0640000
        k(   25) = (  -0.3604638  -0.2000000   0.2001539), wk =   0.0640000
        k(   26) = (  -0.3662342  -0.2000000   0.1000769), wk =   0.0640000
        k(   27) = (  -0.0000000  -0.4000000   0.0000000), wk =   0.0320000
        k(   28) = (  -0.0057704  -0.4000000  -0.1000769), wk =   0.0640000
        k(   29) = (  -0.0115408  -0.4000000  -0.2001539), wk =   0.0640000
        k(   30) = (  -0.1860023  -0.4000000   0.0000000), wk =   0.0640000
        k(   31) = (  -0.1917727  -0.4000000  -0.1000769), wk =   0.0640000
        k(   32) = (  -0.1975431  -0.4000000  -0.2001539), wk =   0.0640000
        k(   33) = (  -0.1744615  -0.4000000   0.2001539), wk =   0.0640000
        k(   34) = (  -0.1802319  -0.4000000   0.1000769), wk =   0.0640000
        k(   35) = (  -0.3720046  -0.4000000   0.0000000), wk =   0.0640000
        k(   36) = (  -0.3777750  -0.4000000  -0.1000769), wk =   0.0640000
        k(   37) = (  -0.3835454  -0.4000000  -0.2001539), wk =   0.0640000
        k(   38) = (  -0.3604638  -0.4000000   0.2001539), wk =   0.0640000
        k(   39) = (  -0.3662342  -0.4000000   0.1000769), wk =   0.0640000

                       cryst. coord.
        k(    1) = (   0.0000000   0.0000000   0.0000000), wk =   0.0160000
        k(    2) = (   0.0000000  -0.0000000   0.2000000), wk =   0.0320000
        k(    3) = (   0.0000000  -0.0000000   0.4000000), wk =   0.0320000
        k(    4) = (   0.0000000   0.2000000   0.0000000), wk =   0.0320000
        k(    5) = (   0.0000000   0.2000000   0.2000000), wk =   0.0320000
        k(    6) = (   0.0000000   0.2000000   0.4000000), wk =   0.0320000
        k(    7) = (   0.0000000   0.2000000  -0.4000000), wk =   0.0320000
        k(    8) = (   0.0000000   0.2000000  -0.2000000), wk =   0.0320000
        k(    9) = (   0.0000000   0.4000000   0.0000000), wk =   0.0320000
        k(   10) = (   0.0000000   0.4000000   0.2000000), wk =   0.0320000
        k(   11) = (   0.0000000   0.4000000   0.4000000), wk =   0.0320000
        k(   12) = (   0.0000000   0.4000000  -0.4000000), wk =   0.0320000
        k(   13) = (   0.0000000   0.4000000  -0.2000000), wk =   0.0320000
        k(   14) = (   0.2000000   0.0000000  -0.0000000), wk =   0.0320000
        k(   15) = (   0.2000000  -0.0000000   0.2000000), wk =   0.0640000
        k(   16) = (   0.2000000  -0.0000000   0.4000000), wk =   0.0640000
        k(   17) = (   0.2000000   0.2000000  -0.0000000), wk =   0.0640000
        k(   18) = (   0.2000000   0.2000000   0.2000000), wk =   0.0640000
        k(   19) = (   0.2000000   0.2000000   0.4000000), wk =   0.0640000
        k(   20) = (   0.2000000   0.2000000  -0.4000000), wk =   0.0640000
        k(   21) = (   0.2000000   0.2000000  -0.2000000), wk =   0.0640000
        k(   22) = (   0.2000000   0.4000000  -0.0000000), wk =   0.0640000
        k(   23) = (   0.2000000   0.4000000   0.2000000), wk =   0.0640000
        k(   24) = (   0.2000000   0.4000000   0.4000000), wk =   0.0640000
        k(   25) = (   0.2000000   0.4000000  -0.4000000), wk =   0.0640000
        k(   26) = (   0.2000000   0.4000000  -0.2000000), wk =   0.0640000
        k(   27) = (   0.4000000   0.0000000  -0.0000000), wk =   0.0320000
        k(   28) = (   0.4000000  -0.0000000   0.2000000), wk =   0.0640000
        k(   29) = (   0.4000000  -0.0000000   0.4000000), wk =   0.0640000
        k(   30) = (   0.4000000   0.2000000  -0.0000000), wk =   0.0640000
        k(   31) = (   0.4000000   0.2000000   0.2000000), wk =   0.0640000
        k(   32) = (   0.4000000   0.2000000   0.4000000), wk =   0.0640000
        k(   33) = (   0.4000000   0.2000000  -0.4000000), wk =   0.0640000
        k(   34) = (   0.4000000   0.2000000  -0.2000000), wk =   0.0640000
        k(   35) = (   0.4000000   0.4000000  -0.0000000), wk =   0.0640000
        k(   36) = (   0.4000000   0.4000000   0.2000000), wk =   0.0640000
        k(   37) = (   0.4000000   0.4000000   0.4000000), wk =   0.0640000
        k(   38) = (   0.4000000   0.4000000  -0.4000000), wk =   0.0640000
        k(   39) = (   0.4000000   0.4000000  -0.2000000), wk =   0.0640000

     Dense  grid:   989717 G-vectors     FFT dimensions: (  96, 108, 192)

     Smooth grid:   136343 G-vectors     FFT dimensions: (  50,  54, 100)

     Dynamical RAM for                 wfc:       4.16 MB

     Dynamical RAM for     wfc (w. buffer):     166.37 MB

     Dynamical RAM for           str. fact:      11.33 MB

     Dynamical RAM for           local pot:       0.00 MB

     Dynamical RAM for          nlocal pot:       5.46 MB

     Dynamical RAM for                qrad:       0.51 MB

     Dynamical RAM for          rho,v,vnew:      22.72 MB

     Dynamical RAM for               rhoin:       7.57 MB

     Dynamical RAM for            rho*nmix:      60.41 MB

     Dynamical RAM for           G-vectors:      14.42 MB

     Dynamical RAM for          h,s,v(r/c):       0.75 MB

     Dynamical RAM for          <psi|beta>:       0.08 MB

     Dynamical RAM for                 psi:       8.32 MB

     Dynamical RAM for                hpsi:       8.32 MB

     Dynamical RAM for      wfcinit/wfcrot:      28.58 MB

     Estimated static dynamical RAM per process >     262.45 MB

     Estimated max dynamical RAM per process >     351.44 MB

     Estimated total dynamical RAM >       1.37 GB

     Initial potential from superposition of free atoms

     starting charge     117.3963, renormalised to     128.0000
     Starting wfcs are  212 randomized atomic wfcs

     total cpu time spent up to now is      472.5 secs

     Self-consistent Calculation

     iteration #  1     ecut=    40.00 Ry     beta= 0.40
     Davidson diagonalization with overlap

---- Real-time Memory Report at c_bands before calling an iterative solver
           454 MiB given to the printing process from OS
             0 MiB allocation reported by mallinfo(arena+hblkhd)
         67653 MiB available memory on the node where the printing process lives
------------------
     ethr =  1.00E-02,  avg # of iterations =  2.0

     Threshold (ethr) on eigenvalues was too large:
     Diagonalizing with lowered threshold

     Davidson diagonalization with overlap

---- Real-time Memory Report at c_bands before calling an iterative solver
           456 MiB given to the printing process from OS
             0 MiB allocation reported by mallinfo(arena+hblkhd)
         67569 MiB available memory on the node where the printing process lives
------------------
     ethr =  2.40E-04,  avg # of iterations =  2.8

     total cpu time spent up to now is     1343.4 secs

     total energy              =    -501.53149083 Ry
     estimated scf accuracy    <       0.34888832 Ry

     iteration #  2     ecut=    40.00 Ry     beta= 0.40
     Davidson diagonalization with overlap

---- Real-time Memory Report at c_bands before calling an iterative solver
           518 MiB given to the printing process from OS
             0 MiB allocation reported by mallinfo(arena+hblkhd)
         66460 MiB available memory on the node where the printing process lives
------------------
     ethr =  2.73E-04,  avg # of iterations =  1.0

     total cpu time spent up to now is     1701.8 secs

     total energy              =    -501.54638948 Ry
     estimated scf accuracy    <       0.09040940 Ry

     iteration #  3     ecut=    40.00 Ry     beta= 0.40
     Davidson diagonalization with overlap

---- Real-time Memory Report at c_bands before calling an iterative solver
           519 MiB given to the printing process from OS
             0 MiB allocation reported by mallinfo(arena+hblkhd)
         66396 MiB available memory on the node where the printing process lives
------------------
     ethr =  7.06E-05,  avg # of iterations =  2.0

     total cpu time spent up to now is     2165.8 secs

     total energy              =    -501.55610264 Ry
     estimated scf accuracy    <       0.01191646 Ry

     iteration #  4     ecut=    40.00 Ry     beta= 0.40
     Davidson diagonalization with overlap

---- Real-time Memory Report at c_bands before calling an iterative solver
           520 MiB given to the printing process from OS
             0 MiB allocation reported by mallinfo(arena+hblkhd)
         66453 MiB available memory on the node where the printing process lives
------------------
     ethr =  9.31E-06,  avg # of iterations =  2.0

     total cpu time spent up to now is     2640.3 secs

     total energy              =    -501.55906199 Ry
     estimated scf accuracy    <       0.00332463 Ry

     iteration #  5     ecut=    40.00 Ry     beta= 0.40
     Davidson diagonalization with overlap

---- Real-time Memory Report at c_bands before calling an iterative solver
           522 MiB given to the printing process from OS
             0 MiB allocation reported by mallinfo(arena+hblkhd)
         66578 MiB available memory on the node where the printing process lives
------------------
     ethr =  2.60E-06,  avg # of iterations =  2.0

     total cpu time spent up to now is     3015.7 secs

     total energy              =    -501.55900744 Ry
     estimated scf accuracy    <       0.00054584 Ry

     iteration #  6     ecut=    40.00 Ry     beta= 0.40
     Davidson diagonalization with overlap

---- Real-time Memory Report at c_bands before calling an iterative solver
           523 MiB given to the printing process from OS
             0 MiB allocation reported by mallinfo(arena+hblkhd)
         68786 MiB available memory on the node where the printing process lives
------------------
     ethr =  4.26E-07,  avg # of iterations =  3.0

     total cpu time spent up to now is     3541.1 secs

     total energy              =    -501.55921197 Ry
     estimated scf accuracy    <       0.00050870 Ry

     iteration #  7     ecut=    40.00 Ry     beta= 0.40
     Davidson diagonalization with overlap

---- Real-time Memory Report at c_bands before calling an iterative solver
           525 MiB given to the printing process from OS
             0 MiB allocation reported by mallinfo(arena+hblkhd)
         68052 MiB available memory on the node where the printing process lives
------------------
     ethr =  3.97E-07,  avg # of iterations =  2.0

     total cpu time spent up to now is     4006.0 secs

     total energy              =    -501.55930456 Ry
     estimated scf accuracy    <       0.00000236 Ry

     iteration #  8     ecut=    40.00 Ry     beta= 0.40
     Davidson diagonalization with overlap

---- Real-time Memory Report at c_bands before calling an iterative solver
           525 MiB given to the printing process from OS
             0 MiB allocation reported by mallinfo(arena+hblkhd)
         65368 MiB available memory on the node where the printing process lives
------------------
     ethr =  1.84E-09,  avg # of iterations =  4.1

     total cpu time spent up to now is     4721.1 secs

     total energy              =    -501.55930906 Ry
     estimated scf accuracy    <       0.00000166 Ry

     iteration #  9     ecut=    40.00 Ry     beta= 0.40
     Davidson diagonalization with overlap

---- Real-time Memory Report at c_bands before calling an iterative solver
           527 MiB given to the printing process from OS
             0 MiB allocation reported by mallinfo(arena+hblkhd)
         64529 MiB available memory on the node where the printing process lives
------------------
     ethr =  1.30E-09,  avg # of iterations =  1.1

     total cpu time spent up to now is     5083.3 secs

     total energy              =    -501.55930849 Ry
     estimated scf accuracy    <       0.00000140 Ry

     iteration # 10     ecut=    40.00 Ry     beta= 0.40
     Davidson diagonalization with overlap

---- Real-time Memory Report at c_bands before calling an iterative solver
           528 MiB given to the printing process from OS
             0 MiB allocation reported by mallinfo(arena+hblkhd)
         64210 MiB available memory on the node where the printing process lives
------------------
     ethr =  1.10E-09,  avg # of iterations =  2.0

     total cpu time spent up to now is     5554.0 secs

     End of self-consistent calculation

          k =-0.0000 0.0000 0.0000 ( 17035 PWs)   bands (ev):

   -13.6532 -13.4920 -13.4738 -13.3367 -12.9538 -12.9515 -12.9032 -12.8658
   -12.8635 -12.8589 -12.8312 -12.8288 -12.7447 -12.7336 -12.6861 -12.6746
    -4.1240  -4.0764  -4.0620  -4.0164  -2.8001  -2.7449  -2.5028  -2.4459
    -2.3806  -2.3714  -2.3243  -2.1928  -2.1450  -2.1350  -2.1018  -1.9328
    -1.6526  -1.5395  -1.5326  -1.4637  -1.3513  -1.3234  -1.2575  -1.2027
    -1.1710  -1.0938  -0.9579  -0.9322  -0.8811  -0.7799  -0.6895  -0.6761
    -0.5377  -0.5362  -0.5297  -0.3780  -0.3618  -0.3430  -0.3383  -0.2630
    -0.1478  -0.1302  -0.0629  -0.0345  -0.0262   0.0332   0.0369   0.0482

     occupation numbers 
     1.0000   1.0000   1.0000   1.0000   1.0000   1.0000   1.0000   1.0000
     1.0000   1.0000   1.0000   1.0000   1.0000   1.0000   1.0000   1.0000
     1.0000   1.0000   1.0000   1.0000   1.0000   1.0000   1.0000   1.0000
     1.0000   1.0000   1.0000   1.0000   1.0000   1.0000   1.0000   1.0000
     1.0000   1.0000   1.0000   1.0000   1.0000   1.0000   1.0000   1.0000
     1.0000   1.0000   1.0000   1.0000   1.0000   1.0000   1.0000   1.0000
     1.0000   1.0000   1.0000   1.0000   1.0000   1.0000   1.0000   1.0000
     1.0000   1.0000   1.0000   1.0000   1.0000   1.0000   1.0000   1.0000

          k =-0.0058 0.0000-0.1001 ( 17051 PWs)   bands (ev):

   -13.6449 -13.5360 -13.4314 -13.3420 -12.9546 -12.9534 -12.9001 -12.8717
   -12.8635 -12.8548 -12.8311 -12.8292 -12.7438 -12.7349 -12.6844 -12.6753
    -4.1220  -4.0893  -4.0486  -4.0174  -2.7946  -2.7502  -2.4963  -2.4328
    -2.3765  -2.3764  -2.3455  -2.2033  -2.1871  -2.0885  -2.0762  -1.9518
    -1.6756  -1.5933  -1.5084  -1.4667  -1.3473  -1.3406  -1.2414  -1.1759
    -1.1729  -1.0232  -0.9675  -0.9083  -0.8836  -0.8057  -0.6941  -0.6539
    -0.6021  -0.5475  -0.4465  -0.4024  -0.3787  -0.3419  -0.3031  -0.2671
    -0.1526  -0.1426  -0.0701  -0.0399  -0.0276   0.0169   0.0389   0.0443

     occupation numbers 
     1.0000   1.0000   1.0000   1.0000   1.0000   1.0000   1.0000   1.0000
     1.0000   1.0000   1.0000   1.0000   1.0000   1.0000   1.0000   1.0000
     1.0000   1.0000   1.0000   1.0000   1.0000   1.0000   1.0000   1.0000
     1.0000   1.0000   1.0000   1.0000   1.0000   1.0000   1.0000   1.0000
     1.0000   1.0000   1.0000   1.0000   1.0000   1.0000   1.0000   1.0000
     1.0000   1.0000   1.0000   1.0000   1.0000   1.0000   1.0000   1.0000
     1.0000   1.0000   1.0000   1.0000   1.0000   1.0000   1.0000   1.0000
     1.0000   1.0000   1.0000   1.0000   1.0000   1.0000   1.0000   1.0000

          k =-0.0115 0.0000-0.2002 ( 17054 PWs)   bands (ev):

   -13.6209 -13.5833 -13.3891 -13.3590 -12.9561 -12.9560 -12.8927 -12.8830
   -12.8583 -12.8544 -12.8309 -12.8302 -12.7413 -12.7380 -12.6809 -12.6775
    -4.1157  -4.1046  -4.0327  -4.0221  -2.7807  -2.7639  -2.4731  -2.4319
    -2.3840  -2.3700  -2.3451  -2.2896  -2.1452  -2.0897  -2.0211  -1.9820
    -1.7016  -1.6746  -1.4693  -1.4602  -1.3608  -1.3541  -1.2177  -1.1923
    -1.1095  -1.0386  -0.9035  -0.8533  -0.8415  -0.8181  -0.7655  -0.6915
    -0.5678  -0.5162  -0.4561  -0.4482  -0.3529  -0.3205  -0.2989  -0.2757
    -0.1651  -0.1508  -0.0709  -0.0624  -0.0230  -0.0056   0.0357   0.0368

     occupation numbers 
     1.0000   1.0000   1.0000   1.0000   1.0000   1.0000   1.0000   1.0000
     1.0000   1.0000   1.0000   1.0000   1.0000   1.0000   1.0000   1.0000
     1.0000   1.0000   1.0000   1.0000   1.0000   1.0000   1.0000   1.0000
     1.0000   1.0000   1.0000   1.0000   1.0000   1.0000   1.0000   1.0000
     1.0000   1.0000   1.0000   1.0000   1.0000   1.0000   1.0000   1.0000
     1.0000   1.0000   1.0000   1.0000   1.0000   1.0000   1.0000   1.0000
     1.0000   1.0000   1.0000   1.0000   1.0000   1.0000   1.0000   1.0000
     1.0000   1.0000   1.0000   1.0000   1.0000   1.0000   1.0000   1.0000

          k =-0.1860 0.0000 0.0000 ( 17028 PWs)   bands (ev):

   -13.6229 -13.4785 -13.4601 -13.3601 -12.9689 -12.9663 -12.9220 -12.8993
   -12.8953 -12.8485 -12.8096 -12.7924 -12.7381 -12.7298 -12.6901 -12.6816
    -4.0876  -4.0455  -4.0140  -3.9896  -2.7724  -2.7114  -2.5356  -2.5058
    -2.3553  -2.2886  -2.2546  -2.2079  -2.1721  -2.1219  -2.0688  -1.9825
    -1.7179  -1.5398  -1.4793  -1.4625  -1.4163  -1.3399  -1.2926  -1.1861
    -1.1190  -1.0926  -0.9898  -0.9069  -0.8127  -0.8100  -0.7093  -0.6574
    -0.6394  -0.5186  -0.5047  -0.4311  -0.3785  -0.3466  -0.3349  -0.3133
    -0.2001  -0.1638  -0.1186  -0.0981  -0.0738  -0.0135   0.0626   0.0628

     occupation numbers 
     1.0000   1.0000   1.0000   1.0000   1.0000   1.0000   1.0000   1.0000
     1.0000   1.0000   1.0000   1.0000   1.0000   1.0000   1.0000   1.0000
     1.0000   1.0000   1.0000   1.0000   1.0000   1.0000   1.0000   1.0000
     1.0000   1.0000   1.0000   1.0000   1.0000   1.0000   1.0000   1.0000
     1.0000   1.0000   1.0000   1.0000   1.0000   1.0000   1.0000   1.0000
     1.0000   1.0000   1.0000   1.0000   1.0000   1.0000   1.0000   1.0000
     1.0000   1.0000   1.0000   1.0000   1.0000   1.0000   1.0000   1.0000
     1.0000   1.0000   1.0000   1.0000   1.0000   1.0000   1.0000   1.0000

          k =-0.1918 0.0000-0.1001 ( 17043 PWs)   bands (ev):

   -13.6137 -13.5202 -13.4230 -13.3635 -12.9745 -12.9519 -12.9240 -12.9074
   -12.9017 -12.8438 -12.8098 -12.7904 -12.7367 -12.7330 -12.6858 -12.6843
    -4.0917  -4.0323  -4.0265  -3.9848  -2.7711  -2.7146  -2.5463  -2.4749
    -2.3759  -2.2814  -2.2732  -2.1792  -2.1568  -2.1257  -2.0800  -2.0281
    -1.7229  -1.5243  -1.4788  -1.4577  -1.3715  -1.3660  -1.3083  -1.2135
    -1.1035  -1.0525  -0.9442  -0.8658  -0.8338  -0.8088  -0.7316  -0.7303
    -0.6805  -0.5205  -0.4682  -0.3879  -0.3649  -0.3635  -0.3393  -0.3381
    -0.1932  -0.1655  -0.1287  -0.0921  -0.0617  -0.0162   0.0586   0.0616

     occupation numbers 
     1.0000   1.0000   1.0000   1.0000   1.0000   1.0000   1.0000   1.0000
     1.0000   1.0000   1.0000   1.0000   1.0000   1.0000   1.0000   1.0000
     1.0000   1.0000   1.0000   1.0000   1.0000   1.0000   1.0000   1.0000
     1.0000   1.0000   1.0000   1.0000   1.0000   1.0000   1.0000   1.0000
     1.0000   1.0000   1.0000   1.0000   1.0000   1.0000   1.0000   1.0000
     1.0000   1.0000   1.0000   1.0000   1.0000   1.0000   1.0000   1.0000
     1.0000   1.0000   1.0000   1.0000   1.0000   1.0000   1.0000   1.0000
     1.0000   1.0000   1.0000   1.0000   1.0000   1.0000   1.0000   1.0000

          k =-0.1975 0.0000-0.2002 ( 17026 PWs)   bands (ev):

   -13.5900 -13.5623 -13.3918 -13.3746 -12.9827 -12.9463 -12.9146 -12.9086
   -12.9033 -12.8501 -12.8088 -12.7942 -12.7341 -12.7318 -12.6905 -12.6797
    -4.0892  -4.0503  -4.0112  -3.9830  -2.7606  -2.7293  -2.5354  -2.4309
    -2.3876  -2.2989  -2.2854  -2.2087  -2.1432  -2.1124  -2.0846  -2.0511
    -1.7202  -1.5995  -1.5103  -1.4640  -1.3858  -1.2972  -1.2609  -1.2014
    -1.0943  -0.9720  -0.9293  -0.8598  -0.8371  -0.8076  -0.7753  -0.7015
    -0.6887  -0.5612  -0.4892  -0.3856  -0.3848  -0.3498  -0.3327  -0.3008
    -0.2118  -0.1972  -0.1125  -0.0882  -0.0642  -0.0360   0.0544   0.0659

     occupation numbers 
     1.0000   1.0000   1.0000   1.0000   1.0000   1.0000   1.0000   1.0000
     1.0000   1.0000   1.0000   1.0000   1.0000   1.0000   1.0000   1.0000
     1.0000   1.0000   1.0000   1.0000   1.0000   1.0000   1.0000   1.0000
     1.0000   1.0000   1.0000   1.0000   1.0000   1.0000   1.0000   1.0000
     1.0000   1.0000   1.0000   1.0000   1.0000   1.0000   1.0000   1.0000
     1.0000   1.0000   1.0000   1.0000   1.0000   1.0000   1.0000   1.0000
     1.0000   1.0000   1.0000   1.0000   1.0000   1.0000   1.0000   1.0000
     1.0000   1.0000   1.0000   1.0000   1.0000   1.0000   1.0000   1.0000

          k =-0.1745 0.0000 0.2002 ( 17057 PWs)   bands (ev):

   -13.5958 -13.5545 -13.3963 -13.3722 -12.9869 -12.9515 -12.9137 -12.9029
   -12.8844 -12.8654 -12.8050 -12.8011 -12.7349 -12.7270 -12.6942 -12.6778
    -4.0798  -4.0661  -4.0010  -3.9872  -2.7480  -2.7428  -2.5220  -2.4509
    -2.3381  -2.3063  -2.2981  -2.2383  -2.1901  -2.0871  -2.0581  -2.0321
    -1.6993  -1.6628  -1.5335  -1.4666  -1.4044  -1.2716  -1.2082  -1.1704
    -1.1046  -1.0181  -0.9360  -0.8786  -0.8675  -0.8007  -0.7173  -0.6518
    -0.5994  -0.5919  -0.5528  -0.4465  -0.3668  -0.3497  -0.3051  -0.3037
    -0.2184  -0.1876  -0.1155  -0.0947  -0.0710  -0.0507   0.0510   0.0759

     occupation numbers 
     1.0000   1.0000   1.0000   1.0000   1.0000   1.0000   1.0000   1.0000
     1.0000   1.0000   1.0000   1.0000   1.0000   1.0000   1.0000   1.0000
     1.0000   1.0000   1.0000   1.0000   1.0000   1.0000   1.0000   1.0000
     1.0000   1.0000   1.0000   1.0000   1.0000   1.0000   1.0000   1.0000
     1.0000   1.0000   1.0000   1.0000   1.0000   1.0000   1.0000   1.0000
     1.0000   1.0000   1.0000   1.0000   1.0000   1.0000   1.0000   1.0000
     1.0000   1.0000   1.0000   1.0000   1.0000   1.0000   1.0000   1.0000
     1.0000   1.0000   1.0000   1.0000   1.0000   1.0000   1.0000   1.0000

          k =-0.1802 0.0000 0.1001 ( 17027 PWs)   bands (ev):

   -13.6167 -13.5114 -13.4298 -13.3626 -12.9825 -12.9587 -12.9177 -12.8952
   -12.8838 -12.8634 -12.8071 -12.7986 -12.7366 -12.7263 -12.6943 -12.6786
    -4.0787  -4.0643  -3.9980  -3.9948  -2.7641  -2.7230  -2.5175  -2.5001
    -2.3140  -2.2995  -2.2620  -2.2525  -2.2170  -2.0884  -2.0527  -1.9886
    -1.7010  -1.6360  -1.5233  -1.4659  -1.4160  -1.2729  -1.2304  -1.1698
    -1.1037  -1.0988  -0.9644  -0.9377  -0.8305  -0.7678  -0.7089  -0.6554
    -0.5987  -0.5323  -0.5041  -0.5032  -0.3649  -0.3306  -0.3265  -0.3052
    -0.2427  -0.1537  -0.1389  -0.0766  -0.0625  -0.0510   0.0559   0.0732

     occupation numbers 
     1.0000   1.0000   1.0000   1.0000   1.0000   1.0000   1.0000   1.0000
     1.0000   1.0000   1.0000   1.0000   1.0000   1.0000   1.0000   1.0000
     1.0000   1.0000   1.0000   1.0000   1.0000   1.0000   1.0000   1.0000
     1.0000   1.0000   1.0000   1.0000   1.0000   1.0000   1.0000   1.0000
     1.0000   1.0000   1.0000   1.0000   1.0000   1.0000   1.0000   1.0000
     1.0000   1.0000   1.0000   1.0000   1.0000   1.0000   1.0000   1.0000
     1.0000   1.0000   1.0000   1.0000   1.0000   1.0000   1.0000   1.0000
     1.0000   1.0000   1.0000   1.0000   1.0000   1.0000   1.0000   1.0000

          k =-0.3720 0.0000 0.0000 ( 17056 PWs)   bands (ev):

   -13.5431 -13.4525 -13.4373 -13.4340 -13.0220 -12.9711 -12.9304 -12.9195
   -12.9162 -12.8613 -12.7859 -12.7706 -12.7243 -12.7207 -12.6986 -12.6962
    -4.0175  -3.9855  -3.9531  -3.9439  -2.6932  -2.6536  -2.5678  -2.4808
    -2.3735  -2.3389  -2.2421  -2.1476  -2.1337  -2.0648  -2.0618  -1.9946
    -1.7611  -1.7486  -1.5615  -1.4981  -1.3283  -1.2699  -1.1743  -1.1528
    -1.1220  -1.0633  -1.0265  -0.9482  -0.8984  -0.8365  -0.6858  -0.6335
    -0.6235  -0.5604  -0.5105  -0.4709  -0.4611  -0.4233  -0.3784  -0.3081
    -0.2775  -0.2529  -0.1985  -0.1310  -0.0591  -0.0421   0.0151   0.0345

     occupation numbers 
     1.0000   1.0000   1.0000   1.0000   1.0000   1.0000   1.0000   1.0000
     1.0000   1.0000   1.0000   1.0000   1.0000   1.0000   1.0000   1.0000
     1.0000   1.0000   1.0000   1.0000   1.0000   1.0000   1.0000   1.0000
     1.0000   1.0000   1.0000   1.0000   1.0000   1.0000   1.0000   1.0000
     1.0000   1.0000   1.0000   1.0000   1.0000   1.0000   1.0000   1.0000
     1.0000   1.0000   1.0000   1.0000   1.0000   1.0000   1.0000   1.0000
     1.0000   1.0000   1.0000   1.0000   1.0000   1.0000   1.0000   1.0000
     1.0000   1.0000   1.0000   1.0000   1.0000   1.0000   1.0000   1.0000

          k =-0.3778 0.0000-0.1001 ( 17057 PWs)   bands (ev):

   -13.5352 -13.4750 -13.4334 -13.4247 -13.0071 -12.9822 -12.9316 -12.9201
   -12.9153 -12.8628 -12.7876 -12.7717 -12.7251 -12.7164 -12.7032 -12.6922
    -4.0215  -3.9782  -3.9543  -3.9456  -2.6908  -2.6594  -2.5418  -2.4960
    -2.3790  -2.3181  -2.2637  -2.1338  -2.1232  -2.0914  -2.0559  -2.0256
    -1.7874  -1.7249  -1.5530  -1.4454  -1.3230  -1.3172  -1.1848  -1.1785
    -1.0818  -1.0441  -0.9914  -0.9507  -0.8856  -0.8044  -0.7468  -0.6828
    -0.6743  -0.5457  -0.4930  -0.4763  -0.4492  -0.4265  -0.3390  -0.3122
    -0.3072  -0.2245  -0.2121  -0.1191  -0.0729  -0.0278   0.0050   0.0480

     occupation numbers 
     1.0000   1.0000   1.0000   1.0000   1.0000   1.0000   1.0000   1.0000
     1.0000   1.0000   1.0000   1.0000   1.0000   1.0000   1.0000   1.0000
     1.0000   1.0000   1.0000   1.0000   1.0000   1.0000   1.0000   1.0000
     1.0000   1.0000   1.0000   1.0000   1.0000   1.0000   1.0000   1.0000
     1.0000   1.0000   1.0000   1.0000   1.0000   1.0000   1.0000   1.0000
     1.0000   1.0000   1.0000   1.0000   1.0000   1.0000   1.0000   1.0000
     1.0000   1.0000   1.0000   1.0000   1.0000   1.0000   1.0000   1.0000
     1.0000   1.0000   1.0000   1.0000   1.0000   1.0000   1.0000   1.0000

          k =-0.3835 0.0000-0.2002 ( 17033 PWs)   bands (ev):

   -13.5169 -13.5016 -13.4302 -13.4213 -12.9984 -12.9867 -12.9309 -12.9172
   -12.9087 -12.8741 -12.7888 -12.7779 -12.7231 -12.7110 -12.7068 -12.6897
    -4.0184  -3.9804  -3.9620  -3.9386  -2.6795  -2.6654  -2.5189  -2.5022
    -2.3939  -2.3187  -2.2506  -2.1339  -2.1170  -2.1093  -2.0742  -2.0463
    -1.7870  -1.6812  -1.5553  -1.4226  -1.4123  -1.3603  -1.1847  -1.1535
    -1.0358  -1.0128  -0.9594  -0.8697  -0.8383  -0.8314  -0.7480  -0.7309
    -0.7295  -0.6487  -0.4748  -0.4692  -0.4018  -0.3865  -0.3773  -0.3334
    -0.2966  -0.2314  -0.1580  -0.1453  -0.1060  -0.0230   0.0112   0.0563

     occupation numbers 
     1.0000   1.0000   1.0000   1.0000   1.0000   1.0000   1.0000   1.0000
     1.0000   1.0000   1.0000   1.0000   1.0000   1.0000   1.0000   1.0000
     1.0000   1.0000   1.0000   1.0000   1.0000   1.0000   1.0000   1.0000
     1.0000   1.0000   1.0000   1.0000   1.0000   1.0000   1.0000   1.0000
     1.0000   1.0000   1.0000   1.0000   1.0000   1.0000   1.0000   1.0000
     1.0000   1.0000   1.0000   1.0000   1.0000   1.0000   1.0000   1.0000
     1.0000   1.0000   1.0000   1.0000   1.0000   1.0000   1.0000   1.0000
     1.0000   1.0000   1.0000   1.0000   1.0000   1.0000   1.0000   1.0000

          k =-0.3605 0.0000 0.2002 ( 17042 PWs)   bands (ev):

   -13.5246 -13.4915 -13.4285 -13.4251 -13.0154 -12.9700 -12.9302 -12.9187
   -12.8941 -12.8875 -12.7845 -12.7836 -12.7214 -12.7149 -12.7030 -12.6906
    -4.0092  -3.9932  -3.9621  -3.9351  -2.6747  -2.6637  -2.5485  -2.4699
    -2.3994  -2.3392  -2.2114  -2.1600  -2.1454  -2.0872  -2.0765  -2.0286
    -1.7690  -1.6615  -1.5678  -1.5141  -1.3942  -1.3621  -1.1749  -1.1111
    -1.0628  -1.0473  -0.9383  -0.8454  -0.8261  -0.7989  -0.7804  -0.7318
    -0.6894  -0.6397  -0.4982  -0.4929  -0.4243  -0.3940  -0.3562  -0.3367
    -0.2499  -0.2184  -0.2016  -0.1314  -0.1284  -0.0295   0.0218   0.0504

     occupation numbers 
     1.0000   1.0000   1.0000   1.0000   1.0000   1.0000   1.0000   1.0000
     1.0000   1.0000   1.0000   1.0000   1.0000   1.0000   1.0000   1.0000
     1.0000   1.0000   1.0000   1.0000   1.0000   1.0000   1.0000   1.0000
     1.0000   1.0000   1.0000   1.0000   1.0000   1.0000   1.0000   1.0000
     1.0000   1.0000   1.0000   1.0000   1.0000   1.0000   1.0000   1.0000
     1.0000   1.0000   1.0000   1.0000   1.0000   1.0000   1.0000   1.0000
     1.0000   1.0000   1.0000   1.0000   1.0000   1.0000   1.0000   1.0000
     1.0000   1.0000   1.0000   1.0000   1.0000   1.0000   1.0000   1.0000

          k =-0.3662 0.0000 0.1001 ( 17057 PWs)   bands (ev):

   -13.5393 -13.4643 -13.4335 -13.4307 -13.0252 -12.9657 -12.9229 -12.9208
   -12.9142 -12.8696 -12.7858 -12.7765 -12.7212 -12.7203 -12.6995 -12.6941
    -4.0072  -3.9970  -3.9589  -3.9369  -2.6863  -2.6530  -2.5696  -2.4685
    -2.3733  -2.3632  -2.2040  -2.1661  -2.1504  -2.0777  -2.0537  -2.0038
    -1.7542  -1.7069  -1.5600  -1.5488  -1.3676  -1.3096  -1.1676  -1.1092
    -1.1010  -1.0569  -1.0162  -0.9077  -0.8553  -0.8282  -0.7306  -0.6446
    -0.6125  -0.5641  -0.5351  -0.5122  -0.4553  -0.4238  -0.3400  -0.3277
    -0.2666  -0.2250  -0.2022  -0.1335  -0.1071  -0.0318   0.0274   0.0331

     occupation numbers 
     1.0000   1.0000   1.0000   1.0000   1.0000   1.0000   1.0000   1.0000
     1.0000   1.0000   1.0000   1.0000   1.0000   1.0000   1.0000   1.0000
     1.0000   1.0000   1.0000   1.0000   1.0000   1.0000   1.0000   1.0000
     1.0000   1.0000   1.0000   1.0000   1.0000   1.0000   1.0000   1.0000
     1.0000   1.0000   1.0000   1.0000   1.0000   1.0000   1.0000   1.0000
     1.0000   1.0000   1.0000   1.0000   1.0000   1.0000   1.0000   1.0000
     1.0000   1.0000   1.0000   1.0000   1.0000   1.0000   1.0000   1.0000
     1.0000   1.0000   1.0000   1.0000   1.0000   1.0000   1.0000   1.0000

          k =-0.0000-0.2000 0.0000 ( 17061 PWs)   bands (ev):

   -13.6248 -13.4842 -13.4589 -13.3530 -12.9631 -12.9568 -12.9019 -12.8775
   -12.8676 -12.8464 -12.8392 -12.8209 -12.7673 -12.7494 -12.6810 -12.6717
    -4.1240  -4.0705  -4.0569  -4.0271  -2.7361  -2.6893  -2.5570  -2.4303
    -2.4034  -2.3643  -2.3290  -2.2670  -2.2215  -2.0311  -2.0091  -1.9198
    -1.6638  -1.6623  -1.4818  -1.4374  -1.3575  -1.3252  -1.2601  -1.2242
    -1.0676  -1.0524  -0.9718  -0.9209  -0.9112  -0.7113  -0.6981  -0.6736
    -0.5898  -0.4863  -0.4824  -0.4362  -0.3780  -0.3591  -0.3402  -0.2499
    -0.1852  -0.1314  -0.1032  -0.0850  -0.0270   0.0278   0.0281   0.0375

     occupation numbers 
     1.0000   1.0000   1.0000   1.0000   1.0000   1.0000   1.0000   1.0000
     1.0000   1.0000   1.0000   1.0000   1.0000   1.0000   1.0000   1.0000
     1.0000   1.0000   1.0000   1.0000   1.0000   1.0000   1.0000   1.0000
     1.0000   1.0000   1.0000   1.0000   1.0000   1.0000   1.0000   1.0000
     1.0000   1.0000   1.0000   1.0000   1.0000   1.0000   1.0000   1.0000
     1.0000   1.0000   1.0000   1.0000   1.0000   1.0000   1.0000   1.0000
     1.0000   1.0000   1.0000   1.0000   1.0000   1.0000   1.0000   1.0000
     1.0000   1.0000   1.0000   1.0000   1.0000   1.0000   1.0000   1.0000

          k =-0.0058-0.2000-0.1001 ( 17060 PWs)   bands (ev):

   -13.6171 -13.5191 -13.4268 -13.3568 -12.9640 -12.9570 -12.8998 -12.8811
   -12.8641 -12.8479 -12.8380 -12.8232 -12.7653 -12.7511 -12.6798 -12.6723
    -4.1211  -4.0830  -4.0458  -4.0268  -2.7300  -2.6924  -2.5483  -2.4396
    -2.4112  -2.3777  -2.3392  -2.2446  -2.1993  -2.0495  -1.9995  -1.9457
    -1.7201  -1.6462  -1.4682  -1.4309  -1.3543  -1.3125  -1.2545  -1.1790
    -1.0851  -1.0341  -0.9816  -0.9271  -0.8756  -0.7555  -0.6993  -0.6254
    -0.5930  -0.5437  -0.4589  -0.4315  -0.4014  -0.3496  -0.3271  -0.2500
    -0.1803  -0.1354  -0.1091  -0.0873  -0.0321   0.0208   0.0236   0.0384

     occupation numbers 
     1.0000   1.0000   1.0000   1.0000   1.0000   1.0000   1.0000   1.0000
     1.0000   1.0000   1.0000   1.0000   1.0000   1.0000   1.0000   1.0000
     1.0000   1.0000   1.0000   1.0000   1.0000   1.0000   1.0000   1.0000
     1.0000   1.0000   1.0000   1.0000   1.0000   1.0000   1.0000   1.0000
     1.0000   1.0000   1.0000   1.0000   1.0000   1.0000   1.0000   1.0000
     1.0000   1.0000   1.0000   1.0000   1.0000   1.0000   1.0000   1.0000
     1.0000   1.0000   1.0000   1.0000   1.0000   1.0000   1.0000   1.0000
     1.0000   1.0000   1.0000   1.0000   1.0000   1.0000   1.0000   1.0000

          k =-0.0115-0.2000-0.2002 ( 17027 PWs)   bands (ev):

   -13.5951 -13.5610 -13.3929 -13.3695 -12.9632 -12.9596 -12.8944 -12.8877
   -12.8578 -12.8519 -12.8344 -12.8287 -12.7606 -12.7553 -12.6770 -12.6742
    -4.1125  -4.0992  -4.0340  -4.0280  -2.7157  -2.7016  -2.5202  -2.4750
    -2.4188  -2.4092  -2.3047  -2.2659  -2.1293  -2.0690  -2.0040  -1.9991
    -1.7307  -1.6924  -1.4246  -1.3954  -1.3614  -1.3566  -1.1701  -1.1458
    -1.1186  -1.0714  -0.9176  -0.8813  -0.8556  -0.8098  -0.6808  -0.6558
    -0.5720  -0.5357  -0.5191  -0.4929  -0.3396  -0.3272  -0.3139  -0.2557
    -0.1844  -0.1527  -0.1158  -0.1002  -0.0208   0.0034   0.0229   0.0328

     occupation numbers 
     1.0000   1.0000   1.0000   1.0000   1.0000   1.0000   1.0000   1.0000
     1.0000   1.0000   1.0000   1.0000   1.0000   1.0000   1.0000   1.0000
     1.0000   1.0000   1.0000   1.0000   1.0000   1.0000   1.0000   1.0000
     1.0000   1.0000   1.0000   1.0000   1.0000   1.0000   1.0000   1.0000
     1.0000   1.0000   1.0000   1.0000   1.0000   1.0000   1.0000   1.0000
     1.0000   1.0000   1.0000   1.0000   1.0000   1.0000   1.0000   1.0000
     1.0000   1.0000   1.0000   1.0000   1.0000   1.0000   1.0000   1.0000
     1.0000   1.0000   1.0000   1.0000   1.0000   1.0000   1.0000   1.0000

          k =-0.1860-0.2000 0.0000 ( 17042 PWs)   bands (ev):

   -13.5963 -13.4708 -13.4463 -13.3681 -12.9725 -12.9693 -12.9362 -12.9045
   -12.8828 -12.8560 -12.8141 -12.7909 -12.7588 -12.7416 -12.6900 -12.6778
    -4.0911  -4.0373  -4.0185  -3.9778  -2.7111  -2.6741  -2.5807  -2.4452
    -2.3941  -2.3435  -2.2550  -2.2324  -2.1818  -2.1017  -1.9959  -1.9663
    -1.7177  -1.6457  -1.4749  -1.4407  -1.4004  -1.3348  -1.2608  -1.1678
    -1.1101  -1.0463  -0.9738  -0.9300  -0.8498  -0.7392  -0.7165  -0.6830
    -0.6185  -0.5266  -0.4841  -0.4460  -0.4200  -0.3561  -0.3438  -0.2822
    -0.2318  -0.2010  -0.1144  -0.0979  -0.0765  -0.0252   0.0323   0.0583

     occupation numbers 
     1.0000   1.0000   1.0000   1.0000   1.0000   1.0000   1.0000   1.0000
     1.0000   1.0000   1.0000   1.0000   1.0000   1.0000   1.0000   1.0000
     1.0000   1.0000   1.0000   1.0000   1.0000   1.0000   1.0000   1.0000
     1.0000   1.0000   1.0000   1.0000   1.0000   1.0000   1.0000   1.0000
     1.0000   1.0000   1.0000   1.0000   1.0000   1.0000   1.0000   1.0000
     1.0000   1.0000   1.0000   1.0000   1.0000   1.0000   1.0000   1.0000
     1.0000   1.0000   1.0000   1.0000   1.0000   1.0000   1.0000   1.0000
     1.0000   1.0000   1.0000   1.0000   1.0000   1.0000   1.0000   1.0000

          k =-0.1918-0.2000-0.1001 ( 17039 PWs)   bands (ev):

   -13.5878 -13.5045 -13.4173 -13.3716 -12.9743 -12.9610 -12.9386 -12.9030
   -12.8943 -12.8532 -12.8104 -12.7915 -12.7587 -12.7434 -12.6884 -12.6783
    -4.0905  -4.0420  -4.0140  -3.9770  -2.7052  -2.6788  -2.5858  -2.4270
    -2.3869  -2.3389  -2.3101  -2.2382  -2.1451  -2.0940  -2.0054  -1.9762
    -1.7411  -1.6516  -1.4678  -1.4325  -1.3687  -1.3305  -1.2625  -1.1980
    -1.0706  -1.0174  -0.9543  -0.9356  -0.8697  -0.7869  -0.7103  -0.6928
    -0.6489  -0.5214  -0.4604  -0.4537  -0.3897  -0.3531  -0.3323  -0.3171
    -0.2095  -0.1980  -0.1298  -0.0959  -0.0767  -0.0322   0.0381   0.0541

     occupation numbers 
     1.0000   1.0000   1.0000   1.0000   1.0000   1.0000   1.0000   1.0000
     1.0000   1.0000   1.0000   1.0000   1.0000   1.0000   1.0000   1.0000
     1.0000   1.0000   1.0000   1.0000   1.0000   1.0000   1.0000   1.0000
     1.0000   1.0000   1.0000   1.0000   1.0000   1.0000   1.0000   1.0000
     1.0000   1.0000   1.0000   1.0000   1.0000   1.0000   1.0000   1.0000
     1.0000   1.0000   1.0000   1.0000   1.0000   1.0000   1.0000   1.0000
     1.0000   1.0000   1.0000   1.0000   1.0000   1.0000   1.0000   1.0000
     1.0000   1.0000   1.0000   1.0000   1.0000   1.0000   1.0000   1.0000

          k =-0.1975-0.2000-0.2002 ( 17046 PWs)   bands (ev):

   -13.5661 -13.5415 -13.3923 -13.3805 -12.9775 -12.9569 -12.9360 -12.9097
   -12.8894 -12.8541 -12.8097 -12.7968 -12.7557 -12.7434 -12.6898 -12.6767
    -4.0897  -4.0444  -4.0145  -3.9729  -2.6974  -2.6902  -2.5720  -2.4032
    -2.3799  -2.3666  -2.3229  -2.2436  -2.1080  -2.1016  -2.0560  -1.9817
    -1.7559  -1.6754  -1.4798  -1.4254  -1.3464  -1.2727  -1.2318  -1.2286
    -1.0663  -0.9819  -0.9557  -0.9172  -0.8377  -0.8173  -0.7260  -0.6984
    -0.6428  -0.5282  -0.5137  -0.4490  -0.4144  -0.3648  -0.3182  -0.2603
    -0.2080  -0.1890  -0.1453  -0.0906  -0.0812  -0.0642   0.0440   0.0504

     occupation numbers 
     1.0000   1.0000   1.0000   1.0000   1.0000   1.0000   1.0000   1.0000
     1.0000   1.0000   1.0000   1.0000   1.0000   1.0000   1.0000   1.0000
     1.0000   1.0000   1.0000   1.0000   1.0000   1.0000   1.0000   1.0000
     1.0000   1.0000   1.0000   1.0000   1.0000   1.0000   1.0000   1.0000
     1.0000   1.0000   1.0000   1.0000   1.0000   1.0000   1.0000   1.0000
     1.0000   1.0000   1.0000   1.0000   1.0000   1.0000   1.0000   1.0000
     1.0000   1.0000   1.0000   1.0000   1.0000   1.0000   1.0000   1.0000
     1.0000   1.0000   1.0000   1.0000   1.0000   1.0000   1.0000   1.0000

          k =-0.1745-0.2000 0.2002 ( 17047 PWs)   bands (ev):

   -13.5718 -13.5337 -13.3987 -13.3761 -12.9804 -12.9598 -12.9332 -12.9103
   -12.8771 -12.8599 -12.8094 -12.8026 -12.7532 -12.7421 -12.6919 -12.6757
    -4.0899  -4.0417  -4.0184  -3.9715  -2.7029  -2.6876  -2.5576  -2.4308
    -2.3815  -2.3587  -2.2943  -2.2333  -2.1503  -2.1075  -2.0234  -2.0062
    -1.7362  -1.6947  -1.4982  -1.4320  -1.3152  -1.2889  -1.2157  -1.1875
    -1.0977  -1.0348  -0.9635  -0.8977  -0.8405  -0.7430  -0.7222  -0.6607
    -0.6071  -0.5956  -0.5366  -0.4725  -0.4378  -0.3481  -0.3135  -0.2630
    -0.2069  -0.1624  -0.1393  -0.1095  -0.0894  -0.0686   0.0419   0.0541

     occupation numbers 
     1.0000   1.0000   1.0000   1.0000   1.0000   1.0000   1.0000   1.0000
     1.0000   1.0000   1.0000   1.0000   1.0000   1.0000   1.0000   1.0000
     1.0000   1.0000   1.0000   1.0000   1.0000   1.0000   1.0000   1.0000
     1.0000   1.0000   1.0000   1.0000   1.0000   1.0000   1.0000   1.0000
     1.0000   1.0000   1.0000   1.0000   1.0000   1.0000   1.0000   1.0000
     1.0000   1.0000   1.0000   1.0000   1.0000   1.0000   1.0000   1.0000
     1.0000   1.0000   1.0000   1.0000   1.0000   1.0000   1.0000   1.0000
     1.0000   1.0000   1.0000   1.0000   1.0000   1.0000   1.0000   1.0000

          k =-0.1802-0.2000 0.1001 ( 17045 PWs)   bands (ev):

   -13.5908 -13.4957 -13.4254 -13.3692 -12.9795 -12.9649 -12.9334 -12.9070
   -12.8711 -12.8633 -12.8138 -12.7975 -12.7554 -12.7405 -12.6922 -12.6763
    -4.0908  -4.0358  -4.0227  -3.9742  -2.7110  -2.6779  -2.5648  -2.4479
    -2.3902  -2.3472  -2.2549  -2.2199  -2.1920  -2.1104  -2.0176  -1.9746
    -1.7059  -1.6857  -1.5015  -1.4384  -1.3661  -1.2974  -1.2173  -1.1801
    -1.1176  -1.0487  -0.9916  -0.9146  -0.8188  -0.7498  -0.7048  -0.6621
    -0.5872  -0.5405  -0.5216  -0.4843  -0.4617  -0.3570  -0.3219  -0.2531
    -0.2300  -0.1843  -0.1356  -0.0920  -0.0663  -0.0617   0.0367   0.0572

     occupation numbers 
     1.0000   1.0000   1.0000   1.0000   1.0000   1.0000   1.0000   1.0000
     1.0000   1.0000   1.0000   1.0000   1.0000   1.0000   1.0000   1.0000
     1.0000   1.0000   1.0000   1.0000   1.0000   1.0000   1.0000   1.0000
     1.0000   1.0000   1.0000   1.0000   1.0000   1.0000   1.0000   1.0000
     1.0000   1.0000   1.0000   1.0000   1.0000   1.0000   1.0000   1.0000
     1.0000   1.0000   1.0000   1.0000   1.0000   1.0000   1.0000   1.0000
     1.0000   1.0000   1.0000   1.0000   1.0000   1.0000   1.0000   1.0000
     1.0000   1.0000   1.0000   1.0000   1.0000   1.0000   1.0000   1.0000

          k =-0.3720-0.2000 0.0000 ( 17035 PWs)   bands (ev):

   -13.5228 -13.4473 -13.4257 -13.4222 -13.0171 -12.9828 -12.9395 -12.9304
   -12.9133 -12.8654 -12.7863 -12.7759 -12.7431 -12.7217 -12.7093 -12.6936
    -4.0232  -4.0016  -3.9308  -3.9097  -2.6428  -2.6388  -2.5963  -2.4735
    -2.4123  -2.3185  -2.2109  -2.1952  -2.1409  -2.0637  -2.0216  -1.9713
    -1.7757  -1.7330  -1.5584  -1.4520  -1.3681  -1.2740  -1.2572  -1.2106
    -1.0726  -1.0331  -0.9871  -0.9422  -0.8731  -0.7933  -0.7339  -0.6797
    -0.5889  -0.5555  -0.5415  -0.5174  -0.4632  -0.3939  -0.3765  -0.3045
    -0.2992  -0.2252  -0.1515  -0.1495  -0.0687  -0.0385  -0.0181   0.0124

     occupation numbers 
     1.0000   1.0000   1.0000   1.0000   1.0000   1.0000   1.0000   1.0000
     1.0000   1.0000   1.0000   1.0000   1.0000   1.0000   1.0000   1.0000
     1.0000   1.0000   1.0000   1.0000   1.0000   1.0000   1.0000   1.0000
     1.0000   1.0000   1.0000   1.0000   1.0000   1.0000   1.0000   1.0000
     1.0000   1.0000   1.0000   1.0000   1.0000   1.0000   1.0000   1.0000
     1.0000   1.0000   1.0000   1.0000   1.0000   1.0000   1.0000   1.0000
     1.0000   1.0000   1.0000   1.0000   1.0000   1.0000   1.0000   1.0000
     1.0000   1.0000   1.0000   1.0000   1.0000   1.0000   1.0000   1.0000

          k =-0.3778-0.2000-0.1001 ( 17035 PWs)   bands (ev):

   -13.5156 -13.4637 -13.4244 -13.4156 -13.0058 -12.9885 -12.9427 -12.9343
   -12.9085 -12.8669 -12.7876 -12.7766 -12.7432 -12.7219 -12.7080 -12.6932
    -4.0262  -3.9977  -3.9292  -3.9121  -2.6458  -2.6408  -2.5784  -2.4869
    -2.3960  -2.3381  -2.2339  -2.1634  -2.1315  -2.0543  -2.0218  -2.0072
    -1.7985  -1.7154  -1.5517  -1.4107  -1.3724  -1.2924  -1.2652  -1.2054
    -1.0762  -1.0303  -0.9725  -0.9383  -0.8615  -0.8104  -0.7672  -0.6934
    -0.5950  -0.5748  -0.5450  -0.4971  -0.4434  -0.4000  -0.3364  -0.3134
    -0.2761  -0.2368  -0.1704  -0.1415  -0.0878  -0.0346  -0.0099   0.0139

     occupation numbers 
     1.0000   1.0000   1.0000   1.0000   1.0000   1.0000   1.0000   1.0000
     1.0000   1.0000   1.0000   1.0000   1.0000   1.0000   1.0000   1.0000
     1.0000   1.0000   1.0000   1.0000   1.0000   1.0000   1.0000   1.0000
     1.0000   1.0000   1.0000   1.0000   1.0000   1.0000   1.0000   1.0000
     1.0000   1.0000   1.0000   1.0000   1.0000   1.0000   1.0000   1.0000
     1.0000   1.0000   1.0000   1.0000   1.0000   1.0000   1.0000   1.0000
     1.0000   1.0000   1.0000   1.0000   1.0000   1.0000   1.0000   1.0000
     1.0000   1.0000   1.0000   1.0000   1.0000   1.0000   1.0000   1.0000

          k =-0.3835-0.2000-0.2002 ( 17032 PWs)   bands (ev):

   -13.4994 -13.4854 -13.4234 -13.4128 -12.9977 -12.9882 -12.9497 -12.9386
   -12.8943 -12.8729 -12.7915 -12.7821 -12.7380 -12.7212 -12.7090 -12.6923
    -4.0269  -3.9939  -3.9358  -3.9083  -2.6485  -2.6376  -2.5627  -2.4892
    -2.3835  -2.3688  -2.2281  -2.1457  -2.1135  -2.0887  -2.0380  -2.0126
    -1.8001  -1.6996  -1.5456  -1.4286  -1.3747  -1.3234  -1.2575  -1.1637
    -1.0976  -1.0228  -0.9819  -0.8974  -0.8170  -0.8039  -0.7628  -0.7101
    -0.6661  -0.6052  -0.5516  -0.4902  -0.4085  -0.3999  -0.3335  -0.2786
    -0.2578  -0.2311  -0.1894  -0.1684  -0.0978  -0.0396  -0.0055   0.0189

     occupation numbers 
     1.0000   1.0000   1.0000   1.0000   1.0000   1.0000   1.0000   1.0000
     1.0000   1.0000   1.0000   1.0000   1.0000   1.0000   1.0000   1.0000
     1.0000   1.0000   1.0000   1.0000   1.0000   1.0000   1.0000   1.0000
     1.0000   1.0000   1.0000   1.0000   1.0000   1.0000   1.0000   1.0000
     1.0000   1.0000   1.0000   1.0000   1.0000   1.0000   1.0000   1.0000
     1.0000   1.0000   1.0000   1.0000   1.0000   1.0000   1.0000   1.0000
     1.0000   1.0000   1.0000   1.0000   1.0000   1.0000   1.0000   1.0000
     1.0000   1.0000   1.0000   1.0000   1.0000   1.0000   1.0000   1.0000

          k =-0.3605-0.2000 0.2002 ( 17033 PWs)   bands (ev):

   -13.5066 -13.4755 -13.4249 -13.4137 -13.0097 -12.9750 -12.9531 -12.9380
   -12.8869 -12.8776 -12.7919 -12.7848 -12.7351 -12.7205 -12.7110 -12.6923
    -4.0249  -3.9948  -3.9401  -3.9051  -2.6475  -2.6337  -2.5763  -2.4590
    -2.4287  -2.3400  -2.2020  -2.1863  -2.1146  -2.0925  -2.0398  -1.9964
    -1.7812  -1.7054  -1.5513  -1.4599  -1.3876  -1.3154  -1.2486  -1.1447
    -1.1302  -1.0278  -0.9407  -0.8910  -0.8303  -0.7670  -0.7472  -0.7017
    -0.6800  -0.6184  -0.5670  -0.4934  -0.4274  -0.3820  -0.3310  -0.3118
    -0.2559  -0.2052  -0.1789  -0.1753  -0.1059  -0.0457   0.0015   0.0143

     occupation numbers 
     1.0000   1.0000   1.0000   1.0000   1.0000   1.0000   1.0000   1.0000
     1.0000   1.0000   1.0000   1.0000   1.0000   1.0000   1.0000   1.0000
     1.0000   1.0000   1.0000   1.0000   1.0000   1.0000   1.0000   1.0000
     1.0000   1.0000   1.0000   1.0000   1.0000   1.0000   1.0000   1.0000
     1.0000   1.0000   1.0000   1.0000   1.0000   1.0000   1.0000   1.0000
     1.0000   1.0000   1.0000   1.0000   1.0000   1.0000   1.0000   1.0000
     1.0000   1.0000   1.0000   1.0000   1.0000   1.0000   1.0000   1.0000
     1.0000   1.0000   1.0000   1.0000   1.0000   1.0000   1.0000   1.0000

          k =-0.3662-0.2000 0.1001 ( 17043 PWs)   bands (ev):

   -13.5195 -13.4527 -13.4299 -13.4167 -13.0183 -12.9766 -12.9448 -12.9347
   -12.9021 -12.8680 -12.7926 -12.7771 -12.7391 -12.7199 -12.7117 -12.6929
    -4.0224  -4.0000  -3.9372  -3.9056  -2.6450  -2.6336  -2.5945  -2.4586
    -2.4264  -2.3201  -2.2163  -2.1908  -2.1256  -2.0868  -2.0297  -1.9701
    -1.7606  -1.7306  -1.5571  -1.4813  -1.3851  -1.2723  -1.2561  -1.1838
    -1.1063  -1.0243  -0.9680  -0.9216  -0.8323  -0.7803  -0.7267  -0.6855
    -0.6216  -0.6000  -0.5785  -0.4722  -0.4649  -0.3922  -0.3559  -0.3100
    -0.2975  -0.1991  -0.1740  -0.1479  -0.0823  -0.0523  -0.0062   0.0138

     occupation numbers 
     1.0000   1.0000   1.0000   1.0000   1.0000   1.0000   1.0000   1.0000
     1.0000   1.0000   1.0000   1.0000   1.0000   1.0000   1.0000   1.0000
     1.0000   1.0000   1.0000   1.0000   1.0000   1.0000   1.0000   1.0000
     1.0000   1.0000   1.0000   1.0000   1.0000   1.0000   1.0000   1.0000
     1.0000   1.0000   1.0000   1.0000   1.0000   1.0000   1.0000   1.0000
     1.0000   1.0000   1.0000   1.0000   1.0000   1.0000   1.0000   1.0000
     1.0000   1.0000   1.0000   1.0000   1.0000   1.0000   1.0000   1.0000
     1.0000   1.0000   1.0000   1.0000   1.0000   1.0000   1.0000   1.0000

          k =-0.0000-0.4000 0.0000 ( 17024 PWs)   bands (ev):

   -13.5537 -13.4899 -13.4263 -13.3927 -12.9802 -12.9728 -12.8977 -12.8916
   -12.8601 -12.8505 -12.8306 -12.8225 -12.7861 -12.7720 -12.6798 -12.6758
    -4.1107  -4.0802  -4.0479  -4.0418  -2.5988  -2.5830  -2.5633  -2.5312
    -2.4674  -2.4420  -2.2821  -2.2235  -2.1894  -2.0501  -1.9150  -1.8894
    -1.7064  -1.6968  -1.4894  -1.4611  -1.3643  -1.2766  -1.2035  -1.2012
    -1.0929  -1.0609  -1.0145  -0.8703  -0.8580  -0.7302  -0.7099  -0.6613
    -0.6436  -0.5751  -0.4232  -0.3807  -0.3714  -0.3443  -0.3004  -0.2222
    -0.1974  -0.1854  -0.1656  -0.1481  -0.0211  -0.0211   0.0028   0.0329

     occupation numbers 
     1.0000   1.0000   1.0000   1.0000   1.0000   1.0000   1.0000   1.0000
     1.0000   1.0000   1.0000   1.0000   1.0000   1.0000   1.0000   1.0000
     1.0000   1.0000   1.0000   1.0000   1.0000   1.0000   1.0000   1.0000
     1.0000   1.0000   1.0000   1.0000   1.0000   1.0000   1.0000   1.0000
     1.0000   1.0000   1.0000   1.0000   1.0000   1.0000   1.0000   1.0000
     1.0000   1.0000   1.0000   1.0000   1.0000   1.0000   1.0000   1.0000
     1.0000   1.0000   1.0000   1.0000   1.0000   1.0000   1.0000   1.0000
     1.0000   1.0000   1.0000   1.0000   1.0000   1.0000   1.0000   1.0000

          k =-0.0058-0.4000-0.1001 ( 17030 PWs)   bands (ev):

   -13.5487 -13.4979 -13.4220 -13.3952 -12.9782 -12.9705 -12.8977 -12.8924
   -12.8583 -12.8493 -12.8342 -12.8270 -12.7831 -12.7724 -12.6793 -12.6762
    -4.1075  -4.0826  -4.0472  -4.0412  -2.5916  -2.5827  -2.5647  -2.5350
    -2.4718  -2.4532  -2.2646  -2.2268  -2.1867  -2.0682  -1.9246  -1.9072
    -1.7323  -1.6945  -1.4430  -1.3968  -1.3573  -1.2762  -1.2111  -1.1768
    -1.1141  -1.0767  -1.0362  -0.8987  -0.8431  -0.7399  -0.7188  -0.6812
    -0.6069  -0.5500  -0.4352  -0.3828  -0.3690  -0.3191  -0.2933  -0.2362
    -0.2231  -0.1772  -0.1732  -0.1493  -0.0280  -0.0144  -0.0005   0.0304

     occupation numbers 
     1.0000   1.0000   1.0000   1.0000   1.0000   1.0000   1.0000   1.0000
     1.0000   1.0000   1.0000   1.0000   1.0000   1.0000   1.0000   1.0000
     1.0000   1.0000   1.0000   1.0000   1.0000   1.0000   1.0000   1.0000
     1.0000   1.0000   1.0000   1.0000   1.0000   1.0000   1.0000   1.0000
     1.0000   1.0000   1.0000   1.0000   1.0000   1.0000   1.0000   1.0000
     1.0000   1.0000   1.0000   1.0000   1.0000   1.0000   1.0000   1.0000
     1.0000   1.0000   1.0000   1.0000   1.0000   1.0000   1.0000   1.0000
     1.0000   1.0000   1.0000   1.0000   1.0000   1.0000   1.0000   1.0000

          k =-0.0115-0.4000-0.2002 ( 17043 PWs)   bands (ev):

   -13.5349 -13.5159 -13.4125 -13.4024 -12.9729 -12.9690 -12.8969 -12.8946
   -12.8528 -12.8469 -12.8406 -12.8357 -12.7780 -12.7742 -12.6783 -12.6771
    -4.0993  -4.0896  -4.0445  -4.0417  -2.5820  -2.5777  -2.5623  -2.5463
    -2.4787  -2.4719  -2.2370  -2.2269  -2.1729  -2.1201  -1.9364  -1.9293
    -1.7305  -1.7125  -1.3646  -1.3481  -1.3163  -1.2565  -1.2157  -1.1561
    -1.1258  -1.0982  -1.0714  -0.9845  -0.8068  -0.7685  -0.7180  -0.7044
    -0.5489  -0.5217  -0.4394  -0.4043  -0.3472  -0.3129  -0.2683  -0.2635
    -0.2237  -0.1948  -0.1808  -0.1679  -0.0255  -0.0184   0.0062   0.0206

     occupation numbers 
     1.0000   1.0000   1.0000   1.0000   1.0000   1.0000   1.0000   1.0000
     1.0000   1.0000   1.0000   1.0000   1.0000   1.0000   1.0000   1.0000
     1.0000   1.0000   1.0000   1.0000   1.0000   1.0000   1.0000   1.0000
     1.0000   1.0000   1.0000   1.0000   1.0000   1.0000   1.0000   1.0000
     1.0000   1.0000   1.0000   1.0000   1.0000   1.0000   1.0000   1.0000
     1.0000   1.0000   1.0000   1.0000   1.0000   1.0000   1.0000   1.0000
     1.0000   1.0000   1.0000   1.0000   1.0000   1.0000   1.0000   1.0000
     1.0000   1.0000   1.0000   1.0000   1.0000   1.0000   1.0000   1.0000

          k =-0.1860-0.4000 0.0000 ( 17038 PWs)   bands (ev):

   -13.5311 -13.4745 -13.4174 -13.3921 -12.9817 -12.9800 -12.9422 -12.9198
   -12.8749 -12.8605 -12.8181 -12.7968 -12.7724 -12.7610 -12.6894 -12.6841
    -4.0833  -4.0588  -3.9931  -3.9747  -2.6104  -2.6076  -2.5570  -2.4661
    -2.4445  -2.4081  -2.2796  -2.2365  -2.1314  -2.1003  -1.9154  -1.9045
    -1.7407  -1.7146  -1.4928  -1.4717  -1.3482  -1.2865  -1.2305  -1.1389
    -1.1055  -1.0386  -1.0350  -0.9561  -0.8313  -0.7889  -0.7625  -0.6869
    -0.6375  -0.5700  -0.4569  -0.4043  -0.3638  -0.3425  -0.3030  -0.2876
    -0.2414  -0.1853  -0.1502  -0.1348  -0.0705  -0.0375  -0.0178   0.0189

     occupation numbers 
     1.0000   1.0000   1.0000   1.0000   1.0000   1.0000   1.0000   1.0000
     1.0000   1.0000   1.0000   1.0000   1.0000   1.0000   1.0000   1.0000
     1.0000   1.0000   1.0000   1.0000   1.0000   1.0000   1.0000   1.0000
     1.0000   1.0000   1.0000   1.0000   1.0000   1.0000   1.0000   1.0000
     1.0000   1.0000   1.0000   1.0000   1.0000   1.0000   1.0000   1.0000
     1.0000   1.0000   1.0000   1.0000   1.0000   1.0000   1.0000   1.0000
     1.0000   1.0000   1.0000   1.0000   1.0000   1.0000   1.0000   1.0000
     1.0000   1.0000   1.0000   1.0000   1.0000   1.0000   1.0000   1.0000

          k =-0.1918-0.4000-0.1001 ( 17017 PWs)   bands (ev):

   -13.5253 -13.4831 -13.4119 -13.3959 -12.9802 -12.9781 -12.9430 -12.9203
   -12.8698 -12.8586 -12.8218 -12.8075 -12.7677 -12.7595 -12.6890 -12.6841
    -4.0797  -4.0611  -3.9909  -3.9771  -2.6120  -2.5982  -2.5678  -2.4719
    -2.4551  -2.3916  -2.2966  -2.2170  -2.1083  -2.1025  -1.9266  -1.9014
    -1.7850  -1.7553  -1.4369  -1.4293  -1.3322  -1.2765  -1.2521  -1.1557
    -1.0851  -1.0613  -1.0213  -0.9884  -0.8316  -0.7873  -0.7603  -0.6967
    -0.6162  -0.5703  -0.4633  -0.4000  -0.3661  -0.3431  -0.3141  -0.2658
    -0.2496  -0.1848  -0.1418  -0.1347  -0.0764  -0.0462  -0.0120   0.0131

     occupation numbers 
     1.0000   1.0000   1.0000   1.0000   1.0000   1.0000   1.0000   1.0000
     1.0000   1.0000   1.0000   1.0000   1.0000   1.0000   1.0000   1.0000
     1.0000   1.0000   1.0000   1.0000   1.0000   1.0000   1.0000   1.0000
     1.0000   1.0000   1.0000   1.0000   1.0000   1.0000   1.0000   1.0000
     1.0000   1.0000   1.0000   1.0000   1.0000   1.0000   1.0000   1.0000
     1.0000   1.0000   1.0000   1.0000   1.0000   1.0000   1.0000   1.0000
     1.0000   1.0000   1.0000   1.0000   1.0000   1.0000   1.0000   1.0000
     1.0000   1.0000   1.0000   1.0000   1.0000   1.0000   1.0000   1.0000

          k =-0.1975-0.4000-0.2002 ( 17020 PWs)   bands (ev):

   -13.5119 -13.4989 -13.4042 -13.4029 -12.9761 -12.9736 -12.9441 -12.9253
   -12.8687 -12.8626 -12.8173 -12.8055 -12.7708 -12.7605 -12.6897 -12.6836
    -4.0784  -4.0586  -3.9943  -3.9748  -2.6078  -2.5971  -2.5657  -2.4887
    -2.4657  -2.3885  -2.2825  -2.2012  -2.1253  -2.0981  -1.9570  -1.9235
    -1.7855  -1.7524  -1.4003  -1.3711  -1.3285  -1.2669  -1.2345  -1.1957
    -1.1072  -1.0627  -1.0277  -0.9861  -0.8437  -0.8037  -0.7643  -0.7012
    -0.5740  -0.5546  -0.4625  -0.3893  -0.3721  -0.3569  -0.3271  -0.2655
    -0.2239  -0.1903  -0.1515  -0.1335  -0.0858  -0.0654  -0.0068   0.0112

     occupation numbers 
     1.0000   1.0000   1.0000   1.0000   1.0000   1.0000   1.0000   1.0000
     1.0000   1.0000   1.0000   1.0000   1.0000   1.0000   1.0000   1.0000
     1.0000   1.0000   1.0000   1.0000   1.0000   1.0000   1.0000   1.0000
     1.0000   1.0000   1.0000   1.0000   1.0000   1.0000   1.0000   1.0000
     1.0000   1.0000   1.0000   1.0000   1.0000   1.0000   1.0000   1.0000
     1.0000   1.0000   1.0000   1.0000   1.0000   1.0000   1.0000   1.0000
     1.0000   1.0000   1.0000   1.0000   1.0000   1.0000   1.0000   1.0000
     1.0000   1.0000   1.0000   1.0000   1.0000   1.0000   1.0000   1.0000

          k =-0.1745-0.4000 0.2002 ( 17029 PWs)   bands (ev):

   -13.5160 -13.4937 -13.4114 -13.3966 -12.9747 -12.9732 -12.9440 -12.9281
   -12.8722 -12.8676 -12.8062 -12.7984 -12.7756 -12.7646 -12.6903 -12.6834
    -4.0813  -4.0545  -3.9981  -3.9719  -2.6093  -2.5928  -2.5670  -2.4805
    -2.4728  -2.3951  -2.2641  -2.2021  -2.1548  -2.0999  -1.9644  -1.9405
    -1.7456  -1.7189  -1.4436  -1.3598  -1.3333  -1.2791  -1.2054  -1.1980
    -1.1324  -1.0682  -1.0344  -0.9233  -0.8740  -0.8282  -0.7503  -0.6973
    -0.5839  -0.5257  -0.4547  -0.4109  -0.3719  -0.3495  -0.3147  -0.2861
    -0.2121  -0.1963  -0.1607  -0.1304  -0.0887  -0.0699  -0.0089   0.0166

     occupation numbers 
     1.0000   1.0000   1.0000   1.0000   1.0000   1.0000   1.0000   1.0000
     1.0000   1.0000   1.0000   1.0000   1.0000   1.0000   1.0000   1.0000
     1.0000   1.0000   1.0000   1.0000   1.0000   1.0000   1.0000   1.0000
     1.0000   1.0000   1.0000   1.0000   1.0000   1.0000   1.0000   1.0000
     1.0000   1.0000   1.0000   1.0000   1.0000   1.0000   1.0000   1.0000
     1.0000   1.0000   1.0000   1.0000   1.0000   1.0000   1.0000   1.0000
     1.0000   1.0000   1.0000   1.0000   1.0000   1.0000   1.0000   1.0000
     1.0000   1.0000   1.0000   1.0000   1.0000   1.0000   1.0000   1.0000

          k =-0.1802-0.4000 0.1001 ( 17039 PWs)   bands (ev):

   -13.5276 -13.4788 -13.4174 -13.3922 -12.9797 -12.9761 -12.9426 -12.9243
   -12.8759 -12.8664 -12.8059 -12.7930 -12.7769 -12.7653 -12.6902 -12.6837
    -4.0840  -4.0551  -3.9973  -3.9719  -2.6134  -2.5976  -2.5601  -2.4768
    -2.4500  -2.4073  -2.2579  -2.2316  -2.1539  -2.1029  -1.9405  -1.9271
    -1.7126  -1.6948  -1.4985  -1.4397  -1.3500  -1.2660  -1.2139  -1.1700
    -1.1238  -1.0652  -1.0192  -0.9183  -0.8517  -0.8319  -0.7461  -0.6901
    -0.6184  -0.5432  -0.4585  -0.3950  -0.3678  -0.3454  -0.3132  -0.2924
    -0.2306  -0.1773  -0.1689  -0.1321  -0.0808  -0.0517  -0.0137   0.0211

     occupation numbers 
     1.0000   1.0000   1.0000   1.0000   1.0000   1.0000   1.0000   1.0000
     1.0000   1.0000   1.0000   1.0000   1.0000   1.0000   1.0000   1.0000
     1.0000   1.0000   1.0000   1.0000   1.0000   1.0000   1.0000   1.0000
     1.0000   1.0000   1.0000   1.0000   1.0000   1.0000   1.0000   1.0000
     1.0000   1.0000   1.0000   1.0000   1.0000   1.0000   1.0000   1.0000
     1.0000   1.0000   1.0000   1.0000   1.0000   1.0000   1.0000   1.0000
     1.0000   1.0000   1.0000   1.0000   1.0000   1.0000   1.0000   1.0000
     1.0000   1.0000   1.0000   1.0000   1.0000   1.0000   1.0000   1.0000

          k =-0.3720-0.4000 0.0000 ( 17017 PWs)   bands (ev):

   -13.4777 -13.4468 -13.4054 -13.4038 -13.0070 -12.9994 -12.9691 -12.9635
   -12.8827 -12.8657 -12.8041 -12.7933 -12.7482 -12.7372 -12.7100 -12.7038
    -4.0250  -4.0163  -3.8925  -3.8803  -2.6173  -2.6080  -2.5709  -2.5085
    -2.3662  -2.3073  -2.2790  -2.2692  -2.0669  -2.0489  -1.9285  -1.9028
    -1.7849  -1.7414  -1.5584  -1.5165  -1.3345  -1.3052  -1.2717  -1.2110
    -1.0962  -1.0208  -1.0094  -0.9561  -0.8521  -0.8219  -0.7751  -0.7317
    -0.6758  -0.6401  -0.5060  -0.4406  -0.4085  -0.3770  -0.3006  -0.2790
    -0.2385  -0.2266  -0.1597  -0.1398  -0.1206  -0.0804  -0.0448  -0.0006

     occupation numbers 
     1.0000   1.0000   1.0000   1.0000   1.0000   1.0000   1.0000   1.0000
     1.0000   1.0000   1.0000   1.0000   1.0000   1.0000   1.0000   1.0000
     1.0000   1.0000   1.0000   1.0000   1.0000   1.0000   1.0000   1.0000
     1.0000   1.0000   1.0000   1.0000   1.0000   1.0000   1.0000   1.0000
     1.0000   1.0000   1.0000   1.0000   1.0000   1.0000   1.0000   1.0000
     1.0000   1.0000   1.0000   1.0000   1.0000   1.0000   1.0000   1.0000
     1.0000   1.0000   1.0000   1.0000   1.0000   1.0000   1.0000   1.0000
     1.0000   1.0000   1.0000   1.0000   1.0000   1.0000   1.0000   1.0000

          k =-0.3778-0.4000-0.1001 ( 17004 PWs)   bands (ev):

   -13.4729 -13.4498 -13.4087 -13.4032 -13.0025 -12.9983 -12.9711 -12.9666
   -12.8801 -12.8674 -12.8026 -12.7928 -12.7499 -12.7372 -12.7101 -12.7041
    -4.0244  -4.0155  -3.8909  -3.8831  -2.6160  -2.6088  -2.5684  -2.5205
    -2.3653  -2.2988  -2.2885  -2.2305  -2.0839  -2.0638  -1.9226  -1.8996
    -1.7980  -1.7410  -1.5488  -1.4982  -1.3693  -1.3452  -1.2287  -1.2099
    -1.1182  -1.0444  -0.9727  -0.9112  -0.8509  -0.8263  -0.8161  -0.7415
    -0.6736  -0.6086  -0.5044  -0.4336  -0.4115  -0.3957  -0.2995  -0.2785
    -0.2227  -0.2170  -0.1758  -0.1464  -0.1135  -0.0784  -0.0418  -0.0090

     occupation numbers 
     1.0000   1.0000   1.0000   1.0000   1.0000   1.0000   1.0000   1.0000
     1.0000   1.0000   1.0000   1.0000   1.0000   1.0000   1.0000   1.0000
     1.0000   1.0000   1.0000   1.0000   1.0000   1.0000   1.0000   1.0000
     1.0000   1.0000   1.0000   1.0000   1.0000   1.0000   1.0000   1.0000
     1.0000   1.0000   1.0000   1.0000   1.0000   1.0000   1.0000   1.0000
     1.0000   1.0000   1.0000   1.0000   1.0000   1.0000   1.0000   1.0000
     1.0000   1.0000   1.0000   1.0000   1.0000   1.0000   1.0000   1.0000
     1.0000   1.0000   1.0000   1.0000   1.0000   1.0000   1.0000   1.0000

          k =-0.3835-0.4000-0.2002 ( 17026 PWs)   bands (ev):

   -13.4638 -13.4557 -13.4124 -13.4044 -12.9954 -12.9927 -12.9773 -12.9707
   -12.8815 -12.8745 -12.7953 -12.7791 -12.7572 -12.7420 -12.7110 -12.7046
    -4.0249  -4.0130  -3.8933  -3.8825  -2.6126  -2.5998  -2.5768  -2.5382
    -2.3602  -2.3163  -2.2519  -2.1834  -2.1052  -2.0954  -1.9362  -1.8998
    -1.7991  -1.7479  -1.5280  -1.4758  -1.3900  -1.3836  -1.2230  -1.1867
    -1.1340  -1.0598  -0.9674  -0.8912  -0.8496  -0.8175  -0.7880  -0.7724
    -0.6679  -0.5909  -0.4883  -0.4411  -0.4169  -0.4128  -0.3023  -0.2728
    -0.2282  -0.2119  -0.1917  -0.1583  -0.0971  -0.0712  -0.0451  -0.0108

     occupation numbers 
     1.0000   1.0000   1.0000   1.0000   1.0000   1.0000   1.0000   1.0000
     1.0000   1.0000   1.0000   1.0000   1.0000   1.0000   1.0000   1.0000
     1.0000   1.0000   1.0000   1.0000   1.0000   1.0000   1.0000   1.0000
     1.0000   1.0000   1.0000   1.0000   1.0000   1.0000   1.0000   1.0000
     1.0000   1.0000   1.0000   1.0000   1.0000   1.0000   1.0000   1.0000
     1.0000   1.0000   1.0000   1.0000   1.0000   1.0000   1.0000   1.0000
     1.0000   1.0000   1.0000   1.0000   1.0000   1.0000   1.0000   1.0000
     1.0000   1.0000   1.0000   1.0000   1.0000   1.0000   1.0000   1.0000

          k =-0.3605-0.4000 0.2002 ( 17022 PWs)   bands (ev):

   -13.4679 -13.4505 -13.4143 -13.4034 -12.9979 -12.9885 -12.9794 -12.9689
   -12.8846 -12.8776 -12.7851 -12.7798 -12.7545 -12.7491 -12.7115 -12.7045
    -4.0256  -4.0122  -3.8956  -3.8800  -2.6039  -2.5948  -2.5934  -2.5358
    -2.3523  -2.3318  -2.2396  -2.1937  -2.1046  -2.0847  -1.9471  -1.9091
    -1.7808  -1.7530  -1.5328  -1.4906  -1.3753  -1.3624  -1.2411  -1.1875
    -1.0932  -1.0814  -0.9980  -0.9006  -0.8429  -0.8049  -0.7809  -0.7541
    -0.6644  -0.6059  -0.4896  -0.4434  -0.4293  -0.3933  -0.3016  -0.2697
    -0.2556  -0.2224  -0.1832  -0.1531  -0.0866  -0.0793  -0.0478  -0.0025

     occupation numbers 
     1.0000   1.0000   1.0000   1.0000   1.0000   1.0000   1.0000   1.0000
     1.0000   1.0000   1.0000   1.0000   1.0000   1.0000   1.0000   1.0000
     1.0000   1.0000   1.0000   1.0000   1.0000   1.0000   1.0000   1.0000
     1.0000   1.0000   1.0000   1.0000   1.0000   1.0000   1.0000   1.0000
     1.0000   1.0000   1.0000   1.0000   1.0000   1.0000   1.0000   1.0000
     1.0000   1.0000   1.0000   1.0000   1.0000   1.0000   1.0000   1.0000
     1.0000   1.0000   1.0000   1.0000   1.0000   1.0000   1.0000   1.0000
     1.0000   1.0000   1.0000   1.0000   1.0000   1.0000   1.0000   1.0000

          k =-0.3662-0.4000 0.1001 ( 17012 PWs)   bands (ev):

   -13.4756 -13.4459 -13.4112 -13.4018 -13.0046 -12.9954 -12.9725 -12.9639
   -12.8879 -12.8697 -12.7995 -12.7785 -12.7546 -12.7415 -12.7109 -12.7040
    -4.0259  -4.0141  -3.8949  -3.8787  -2.6109  -2.6021  -2.5838  -2.5174
    -2.3571  -2.3264  -2.2677  -2.2372  -2.0717  -2.0607  -1.9436  -1.9096
    -1.7700  -1.7531  -1.5478  -1.5126  -1.3477  -1.3185  -1.2679  -1.1947
    -1.0842  -1.0345  -1.0267  -0.9599  -0.8375  -0.8053  -0.7608  -0.7390
    -0.6666  -0.6427  -0.5053  -0.4410  -0.4100  -0.3797  -0.3061  -0.2782
    -0.2513  -0.2273  -0.1718  -0.1457  -0.0998  -0.0811  -0.0463   0.0026

     occupation numbers 
     1.0000   1.0000   1.0000   1.0000   1.0000   1.0000   1.0000   1.0000
     1.0000   1.0000   1.0000   1.0000   1.0000   1.0000   1.0000   1.0000
     1.0000   1.0000   1.0000   1.0000   1.0000   1.0000   1.0000   1.0000
     1.0000   1.0000   1.0000   1.0000   1.0000   1.0000   1.0000   1.0000
     1.0000   1.0000   1.0000   1.0000   1.0000   1.0000   1.0000   1.0000
     1.0000   1.0000   1.0000   1.0000   1.0000   1.0000   1.0000   1.0000
     1.0000   1.0000   1.0000   1.0000   1.0000   1.0000   1.0000   1.0000
     1.0000   1.0000   1.0000   1.0000   1.0000   1.0000   1.0000   1.0000

     highest occupied level (ev):     0.0759

!    total energy              =    -501.55930878 Ry
     estimated scf accuracy    <       0.00000004 Ry

     The total energy is the sum of the following terms:
     one-electron contribution =    -126.97778480 Ry
     hartree contribution      =     109.52008041 Ry
     xc contribution           =    -102.60838916 Ry
     ewald contribution        =    -381.49321522 Ry

     convergence has been achieved in  10 iterations

     Forces acting on atoms (cartesian axes, Ry/au):

     atom    1 type  1   force =    -0.00088161    0.00080103    0.00199608
     atom    2 type  1   force =     0.00088161    0.00080103   -0.00199608
     atom    3 type  1   force =     0.00088161   -0.00080103   -0.00199608
     atom    4 type  1   force =    -0.00088161   -0.00080103    0.00199608
     atom    5 type  2   force =    -0.00062462   -0.00207508    0.00212024
     atom    6 type  2   force =     0.00062462   -0.00207508   -0.00212024
     atom    7 type  2   force =     0.00062462    0.00207508   -0.00212024
     atom    8 type  2   force =    -0.00062462    0.00207508    0.00212024
     atom    9 type  3   force =    -0.00028316    0.00611406    0.01319042
     atom   10 type  3   force =     0.00028316    0.00611406   -0.01319042
     atom   11 type  3   force =     0.00028316   -0.00611406   -0.01319042
     atom   12 type  3   force =    -0.00028316   -0.00611406    0.01319042
     atom   13 type  3   force =     0.00553594   -0.01254575    0.00177609
     atom   14 type  3   force =    -0.00553594   -0.01254575   -0.00177609
     atom   15 type  3   force =    -0.00553594    0.01254575   -0.00177609
     atom   16 type  3   force =     0.00553594    0.01254575    0.00177609
     atom   17 type  3   force =     0.01087832    0.00663442   -0.00934667
     atom   18 type  3   force =    -0.01087832    0.00663442    0.00934667
     atom   19 type  3   force =    -0.01087832   -0.00663442    0.00934667
     atom   20 type  3   force =     0.01087832   -0.00663442   -0.00934667
     atom   21 type  3   force =    -0.01342151    0.00049422   -0.00715664
     atom   22 type  3   force =     0.01342151    0.00049422    0.00715664
     atom   23 type  3   force =     0.01342151   -0.00049422    0.00715664
     atom   24 type  3   force =    -0.01342151   -0.00049422   -0.00715664
     The non-local contrib.  to forces
     atom    1 type  1   force =    -0.01738424   -0.01339644   -0.00098328
     atom    2 type  1   force =     0.01738424   -0.01339644    0.00098328
     atom    3 type  1   force =     0.01738424    0.01339644    0.00098328
     atom    4 type  1   force =    -0.01738424    0.01339644   -0.00098328
     atom    5 type  2   force =     0.00086798    0.01438971   -0.03002330
     atom    6 type  2   force =    -0.00086798    0.01438971    0.03002330
     atom    7 type  2   force =    -0.00086798   -0.01438971    0.03002330
     atom    8 type  2   force =     0.00086798   -0.01438971   -0.03002330
     atom    9 type  3   force =     0.04219239   -0.14808904   -0.15611773
     atom   10 type  3   force =    -0.04219239   -0.14808904    0.15611773
     atom   11 type  3   force =    -0.04219239    0.14808904    0.15611773
     atom   12 type  3   force =     0.04219239    0.14808904   -0.15611773
     atom   13 type  3   force =    -0.01603956    0.20884071   -0.01496543
     atom   14 type  3   force =     0.01603956    0.20884071    0.01496543
     atom   15 type  3   force =     0.01603956   -0.20884071    0.01496543
     atom   16 type  3   force =    -0.01603956   -0.20884071   -0.01496543
     atom   17 type  3   force =    -0.15542453   -0.09271276    0.04485936
     atom   18 type  3   force =     0.15542453   -0.09271276   -0.04485936
     atom   19 type  3   force =     0.15542453    0.09271276   -0.04485936
     atom   20 type  3   force =    -0.15542453    0.09271276    0.04485936
     atom   21 type  3   force =     0.13035961   -0.06549758    0.15646465
     atom   22 type  3   force =    -0.13035961   -0.06549758   -0.15646465
     atom   23 type  3   force =    -0.13035961    0.06549758   -0.15646465
     atom   24 type  3   force =     0.13035961    0.06549758    0.15646465
     The ionic contribution  to forces
     atom    1 type  1   force =    -0.02423539   -0.05007099   -0.11403160
     atom    2 type  1   force =     0.02423539   -0.05007099    0.11403160
     atom    3 type  1   force =     0.02423539    0.05007099    0.11403160
     atom    4 type  1   force =    -0.02423539    0.05007099   -0.11403160
     atom    5 type  2   force =    -0.18827817    0.26150167   -0.19527978
     atom    6 type  2   force =     0.18827817    0.26150167    0.19527978
     atom    7 type  2   force =     0.18827817   -0.26150167    0.19527978
     atom    8 type  2   force =    -0.18827817   -0.26150167   -0.19527978
     atom    9 type  3   force =    -0.15118188    2.01723636    2.20437328
     atom   10 type  3   force =     0.15118188    2.01723636   -2.20437328
     atom   11 type  3   force =     0.15118188   -2.01723636   -2.20437328
     atom   12 type  3   force =    -0.15118188   -2.01723636    2.20437328
     atom   13 type  3   force =     0.32252200   -3.04795898   -0.01908978
     atom   14 type  3   force =    -0.32252200   -3.04795898    0.01908978
     atom   15 type  3   force =    -0.32252200    3.04795898    0.01908978
     atom   16 type  3   force =     0.32252200    3.04795898   -0.01908978
     atom   17 type  3   force =     1.72511832    1.44022468   -1.10806173
     atom   18 type  3   force =    -1.72511832    1.44022468    1.10806173
     atom   19 type  3   force =    -1.72511832   -1.44022468    1.10806173
     atom   20 type  3   force =     1.72511832   -1.44022468   -1.10806173
     atom   21 type  3   force =    -1.95880577    0.42461295   -1.37177756
     atom   22 type  3   force =     1.95880577    0.42461295    1.37177756
     atom   23 type  3   force =     1.95880577   -0.42461295    1.37177756
     atom   24 type  3   force =    -1.95880577   -0.42461295   -1.37177756
     The local contribution  to forces
     atom    1 type  1   force =     0.03808828    0.06224202    0.11680028
     atom    2 type  1   force =    -0.03808828    0.06224202   -0.11680028
     atom    3 type  1   force =    -0.03808828   -0.06224202   -0.11680028
     atom    4 type  1   force =     0.03808828   -0.06224202    0.11680028
     atom    5 type  2   force =     0.18678448   -0.27797645    0.22743628
     atom    6 type  2   force =    -0.18678448   -0.27797645   -0.22743628
     atom    7 type  2   force =    -0.18678448    0.27797645   -0.22743628
     atom    8 type  2   force =     0.18678448    0.27797645    0.22743628
     atom    9 type  3   force =     0.10872977   -1.86308274   -2.03497053
     atom   10 type  3   force =    -0.10872977   -1.86308274    2.03497053
     atom   11 type  3   force =    -0.10872977    1.86308274    2.03497053
     atom   12 type  3   force =     0.10872977    1.86308274   -2.03497053
     atom   13 type  3   force =    -0.30090786    2.82655613    0.03589788
     atom   14 type  3   force =     0.30090786    2.82655613   -0.03589788
     atom   15 type  3   force =     0.30090786   -2.82655613   -0.03589788
     atom   16 type  3   force =    -0.30090786   -2.82655613    0.03589788
     atom   17 type  3   force =    -1.55871398   -1.34085689    1.05379870
     atom   18 type  3   force =     1.55871398   -1.34085689   -1.05379870
     atom   19 type  3   force =     1.55871398    1.34085689   -1.05379870
     atom   20 type  3   force =    -1.55871398    1.34085689    1.05379870
     atom   21 type  3   force =     1.81492250   -0.35864343    1.20814153
     atom   22 type  3   force =    -1.81492250   -0.35864343   -1.20814153
     atom   23 type  3   force =    -1.81492250    0.35864343   -1.20814153
     atom   24 type  3   force =     1.81492250    0.35864343    1.20814153
     The core correction contribution to forces
     atom    1 type  1   force =     0.00265063    0.00202652    0.00021189
     atom    2 type  1   force =    -0.00265063    0.00202652   -0.00021189
     atom    3 type  1   force =    -0.00265063   -0.00202652   -0.00021189
     atom    4 type  1   force =     0.00265063   -0.00202652    0.00021189
     atom    5 type  2   force =     0.00000000    0.00000000    0.00000000
     atom    6 type  2   force =     0.00000000    0.00000000    0.00000000
     atom    7 type  2   force =     0.00000000    0.00000000    0.00000000
     atom    8 type  2   force =     0.00000000    0.00000000    0.00000000
     atom    9 type  3   force =     0.00000000    0.00000000    0.00000000
     atom   10 type  3   force =     0.00000000    0.00000000    0.00000000
     atom   11 type  3   force =     0.00000000    0.00000000    0.00000000
     atom   12 type  3   force =     0.00000000    0.00000000    0.00000000
     atom   13 type  3   force =     0.00000000    0.00000000    0.00000000
     atom   14 type  3   force =     0.00000000    0.00000000    0.00000000
     atom   15 type  3   force =     0.00000000    0.00000000    0.00000000
     atom   16 type  3   force =     0.00000000    0.00000000    0.00000000
     atom   17 type  3   force =     0.00000000    0.00000000    0.00000000
     atom   18 type  3   force =     0.00000000    0.00000000    0.00000000
     atom   19 type  3   force =     0.00000000    0.00000000    0.00000000
     atom   20 type  3   force =     0.00000000    0.00000000    0.00000000
     atom   21 type  3   force =     0.00000000    0.00000000    0.00000000
     atom   22 type  3   force =     0.00000000    0.00000000    0.00000000
     atom   23 type  3   force =     0.00000000    0.00000000    0.00000000
     atom   24 type  3   force =     0.00000000    0.00000000    0.00000000
     The Hubbard contrib.    to forces
     atom    1 type  1   force =     0.00000000    0.00000000    0.00000000
     atom    2 type  1   force =     0.00000000    0.00000000    0.00000000
     atom    3 type  1   force =     0.00000000    0.00000000    0.00000000
     atom    4 type  1   force =     0.00000000    0.00000000    0.00000000
     atom    5 type  2   force =     0.00000000    0.00000000    0.00000000
     atom    6 type  2   force =     0.00000000    0.00000000    0.00000000
     atom    7 type  2   force =     0.00000000    0.00000000    0.00000000
     atom    8 type  2   force =     0.00000000    0.00000000    0.00000000
     atom    9 type  3   force =     0.00000000    0.00000000    0.00000000
     atom   10 type  3   force =     0.00000000    0.00000000    0.00000000
     atom   11 type  3   force =     0.00000000    0.00000000    0.00000000
     atom   12 type  3   force =     0.00000000    0.00000000    0.00000000
     atom   13 type  3   force =     0.00000000    0.00000000    0.00000000
     atom   14 type  3   force =     0.00000000    0.00000000    0.00000000
     atom   15 type  3   force =     0.00000000    0.00000000    0.00000000
     atom   16 type  3   force =     0.00000000    0.00000000    0.00000000
     atom   17 type  3   force =     0.00000000    0.00000000    0.00000000
     atom   18 type  3   force =     0.00000000    0.00000000    0.00000000
     atom   19 type  3   force =     0.00000000    0.00000000    0.00000000
     atom   20 type  3   force =     0.00000000    0.00000000    0.00000000
     atom   21 type  3   force =     0.00000000    0.00000000    0.00000000
     atom   22 type  3   force =     0.00000000    0.00000000    0.00000000
     atom   23 type  3   force =     0.00000000    0.00000000    0.00000000
     atom   24 type  3   force =     0.00000000    0.00000000    0.00000000
     The SCF correction term to forces
     atom    1 type  1   force =    -0.00000089   -0.00000008   -0.00000120
     atom    2 type  1   force =     0.00000089   -0.00000008    0.00000120
     atom    3 type  1   force =     0.00000089    0.00000008    0.00000120
     atom    4 type  1   force =    -0.00000089    0.00000008   -0.00000120
     atom    5 type  2   force =     0.00000109    0.00000999   -0.00001296
     atom    6 type  2   force =    -0.00000109    0.00000999    0.00001296
     atom    7 type  2   force =    -0.00000109   -0.00000999    0.00001296
     atom    8 type  2   force =     0.00000109   -0.00000999   -0.00001296
     atom    9 type  3   force =    -0.00002343    0.00004949   -0.00009459
     atom   10 type  3   force =     0.00002343    0.00004949    0.00009459
     atom   11 type  3   force =     0.00002343   -0.00004949    0.00009459
     atom   12 type  3   force =    -0.00002343   -0.00004949   -0.00009459
     atom   13 type  3   force =    -0.00003865    0.00001639   -0.00006657
     atom   14 type  3   force =     0.00003865    0.00001639    0.00006657
     atom   15 type  3   force =     0.00003865   -0.00001639    0.00006657
     atom   16 type  3   force =    -0.00003865   -0.00001639   -0.00006657
     atom   17 type  3   force =    -0.00010149   -0.00002061    0.00005700
     atom   18 type  3   force =     0.00010149   -0.00002061   -0.00005700
     atom   19 type  3   force =     0.00010149    0.00002061   -0.00005700
     atom   20 type  3   force =    -0.00010149    0.00002061    0.00005700
     atom   21 type  3   force =     0.00010215    0.00002228    0.00001474
     atom   22 type  3   force =    -0.00010215    0.00002228   -0.00001474
     atom   23 type  3   force =    -0.00010215   -0.00002228   -0.00001474
     atom   24 type  3   force =     0.00010215   -0.00002228    0.00001474

     Total force =     0.059952     Total SCF correction =     0.000417


     Computing stress (Cartesian axis) and pressure

          total   stress  (Ry/bohr**3)                   (kbar)     P=       14.71
   0.00010239   0.00000000   0.00000241           15.06        0.00        0.35
   0.00000000   0.00009956   0.00000000            0.00       14.65        0.00
   0.00000241   0.00000000   0.00009807            0.35        0.00       14.43

     kinetic stress (kbar)   4593.65      0.00     -9.87
                                0.00   4640.48      0.00
                               -9.87      0.00   4598.38

     local   stress (kbar)  -6141.87     -0.00    -92.07
                               -0.00  -5380.16     -0.00
                              -92.07     -0.00  -5842.24

     nonloc. stress (kbar)   5713.30      0.00      1.22
                                0.00   5712.00      0.00
                                1.22      0.00   5713.29

     hartree stress (kbar)   1462.55     -0.00     24.13
                               -0.00   1225.48      0.00
                               24.13      0.00   1351.92

     exc-cor stress (kbar)  -1156.20     -0.00      0.25
                               -0.00  -1157.35     -0.00
                                0.25     -0.00  -1156.75

     corecor stress (kbar)    -20.03     -0.00     -0.02
                               -0.00    -20.03     -0.00
                               -0.02     -0.00    -19.85

     ewald   stress (kbar)  -4436.33     -0.00     76.71
                               -0.00  -5005.77      0.00
                               76.71      0.00  -4630.32

     hubbard stress (kbar)      0.00      0.00      0.00
                                0.00      0.00      0.00
                                0.00      0.00      0.00

     DFT-D   stress (kbar)      0.00      0.00      0.00
                                0.00      0.00      0.00
                                0.00      0.00      0.00

     XDM     stress (kbar)      0.00      0.00      0.00
                                0.00      0.00      0.00
                                0.00      0.00      0.00

     dft-nl  stress (kbar)      0.00      0.00      0.00
                                0.00      0.00      0.00
                                0.00      0.00      0.00

     TS-vdW  stress (kbar)      0.00      0.00      0.00
                                0.00      0.00      0.00
                                0.00      0.00      0.00

     MDB     stress (kbar)      0.00      0.00      0.00
                                0.00      0.00      0.00
                                0.00      0.00      0.00

     3D-RISM stress (kbar)      0.00      0.00      0.00
                                0.00      0.00      0.00
                                0.00      0.00      0.00


     Writing all to output data dir ./out/LAC.save/ :
     XML data file, charge density, pseudopotentials, collected wavefunctions

     init_run     :    469.56s CPU    472.16s WALL (       1 calls)
     electrons    :   5064.28s CPU   5135.21s WALL (       1 calls)
     forces       :     55.68s CPU     55.85s WALL (       1 calls)
     stress       :     93.64s CPU     93.93s WALL (       1 calls)

     Called by init_run:
     wfcinit      :    467.18s CPU    469.61s WALL (       1 calls)
     wfcinit:atom :      0.22s CPU      0.46s WALL (      39 calls)
     wfcinit:wfcr :    465.04s CPU    467.06s WALL (      39 calls)
     potinit      :      0.91s CPU      1.00s WALL (       1 calls)
     hinit0       :      1.07s CPU      1.12s WALL (       1 calls)

     Called by electrons:
     c_bands      :   4191.40s CPU   4204.95s WALL (      11 calls)
     sum_band     :    866.87s CPU    869.77s WALL (      11 calls)
     v_of_rho     :      5.04s CPU      5.71s WALL (      11 calls)
     v_h          :      0.39s CPU      0.51s WALL (      11 calls)
     v_xc         :      5.54s CPU      6.19s WALL (      13 calls)
     mix_rho      :      0.58s CPU      0.66s WALL (      11 calls)

     Called by c_bands:
     init_us_2    :      2.76s CPU      2.81s WALL (     975 calls)
     cegterg      :   4185.07s CPU   4198.16s WALL (     429 calls)

     Called by sum_band:
     sum_band:wei :      0.00s CPU      0.00s WALL (      11 calls)
     sum_band:loo :    865.98s CPU    868.40s WALL (      11 calls)
     sum_band:buf :      0.59s CPU      0.89s WALL (     429 calls)
     sum_band:ini :      1.26s CPU      1.29s WALL (     429 calls)

     Called by *egterg:
     cdiaghg      :      7.52s CPU      7.55s WALL (    1326 calls)
     cegterg:over :     15.15s CPU     15.21s WALL (     936 calls)
     cegterg:upda :      6.60s CPU      6.64s WALL (     936 calls)
     cegterg:last :     11.26s CPU     11.36s WALL (     901 calls)
     h_psi        :   4582.57s CPU   4597.37s WALL (    1404 calls)
     g_psi        :      1.90s CPU      1.91s WALL (     936 calls)

     Called by h_psi:
     h_psi:calbec :     31.95s CPU     32.13s WALL (    1404 calls)
     vloc_psi     :   4541.83s CPU   4556.09s WALL (    1404 calls)
     add_vuspsi   :      7.65s CPU      7.72s WALL (    1404 calls)

     General routines
     calbec       :    143.23s CPU    143.48s WALL (    1599 calls)
     fft          :      5.26s CPU      5.74s WALL (     155 calls)
     ffts         :      0.71s CPU      0.72s WALL (      22 calls)
     fftw         :   5291.06s CPU   5306.31s WALL (  193394 calls)
     interpolate  :      0.73s CPU      0.84s WALL (      11 calls)

     Parallel routines

     PWSCF        :      1h34m CPU      1h37m WALL


   This run was terminated on:  21:53:54  10Nov2024            

=------------------------------------------------------------------------------=
   JOB DONE.
=------------------------------------------------------------------------------=
