### Running on host: gra740.graham.sharcnet

     Program PWSCF v.7.3.1 starts on 10Nov2024 at 23:23: 0 

     This program is part of the open-source Quantum ESPRESSO suite
     for quantum simulation of materials; please cite
         "P. Giannozzi et al., J. Phys.:Condens. Matter 21 395502 (2009);
         "P. Giannozzi et al., J. Phys.:Condens. Matter 29 465901 (2017);
         "P. Giannozzi et al., J. Chem. Phys. 152 154105 (2020);
          URL http://www.quantum-espresso.org", 
     in publications or presentations arising from this work. More details at
     http://www.quantum-espresso.org/quote

     Parallel version (MPI & OpenMP), running on       4 processor cores
     Number of MPI processes:                 4
     Threads/MPI process:                     1

     MPI processes distributed on     1 nodes
     64922 MiB available memory on the printing compute node when the environment starts

     Reading input from LAC_scf_ecutwfc-60.in

     Current dimensions of program PWSCF are:
     Max number of different atomic species (ntypx) = 10
     Max number of k-points (npk) =  40000
     Max angular momentum in pseudopotentials (lmaxx) =  4
     file Li.pbe-tm-gipaw-dc.UPF: wavefunction(s)  2S 2P 3S 3P renormalized
     WARNING: atomic wfc #  3 for atom typeAl has zero norm
     WARNING: atomic wfc #  4 for atom typeAl has zero norm
     Message from routine setup:
     using ibrav=0 with symmetry is DISCOURAGED, use correct ibrav instead

     R & G space division:  proc/nbgrp/npool/nimage =       4
     Subspace diagonalization in iterative solution of the eigenvalue problem:
     a serial algorithm will be used


     Parallelization info
     --------------------
     sticks:   dense  smooth     PW     G-vecs:    dense   smooth      PW
     Min        1940     776    208               247428    62604    8761
     Max        1941     777    209               247431    62608    8764
     Sum        7761    3105    835               989717   250423   35053

     Using Slab Decomposition



     bravais-lattice index     =            0
     lattice parameter (alat)  =      12.2889  a.u.
     unit-cell volume          =    3987.9110 (a.u.)^3
     number of atoms/cell      =           24
     number of atomic types    =            3
     number of electrons       =       128.00
     number of Kohn-Sham states=           64
     kinetic-energy cutoff     =      60.0000  Ry
     charge density cutoff     =     600.0000  Ry
     scf convergence threshold =      1.0E-06
     mixing beta               =       0.4000
     number of iterations used =            8  plain     mixing
     Exchange-correlation=  SLA  PW   PBX  PBC
                           (   1   4   3   4   0   0   0)

     celldm(1)=  12.288889  celldm(2)=   0.000000  celldm(3)=   0.000000
     celldm(4)=   0.000000  celldm(5)=   0.000000  celldm(6)=   0.000000

     crystal axes: (cart. coord. in units of alat)
               a(1) = (  -0.000000  -1.000000  -0.000000 )  
               a(2) = (  -1.075255   0.000000   0.061999 )  
               a(3) = (   0.000000   0.000000  -1.998462 )  

     reciprocal axes: (cart. coord. in units 2 pi/alat)
               b(1) = ( -0.000000 -1.000000 -0.000000 )  
               b(2) = ( -0.930012  0.000000  0.000000 )  
               b(3) = ( -0.028852  0.000000 -0.500385 )  


     PseudoPot. # 1 for Li read from file:
     /home/cgurwell/projects/rrg-ravh011/cgurwell/pseudo/Li.pbe-tm-gipaw-dc.UPF
     MD5 check sum: 258bf1e32d815cbe0990be85d5d6a6e5
     Pseudo is Norm-conserving + core correction, Zval =  1.0
     Generated by new atomic code, or converted to UPF format
     Using radial grid of 1371 points,  1 beta functions with: 
                l(1) =   0

     PseudoPot. # 2 for Al read from file:
     /home/cgurwell/projects/rrg-ravh011/cgurwell/pseudo/Al.pbe-tm-gipaw-dc.UPF
     MD5 check sum: efdf9c81b1c08458edd46fe92d869955
     Pseudo is Norm-conserving, Zval =  3.0
     Generated by new atomic code, or converted to UPF format
     Using radial grid of 1519 points,  2 beta functions with: 
                l(1) =   0
                l(2) =   1

     PseudoPot. # 3 for Cl read from file:
     /home/cgurwell/projects/rrg-ravh011/cgurwell/pseudo/Cl.pbe-tm-gipaw.UPF
     MD5 check sum: 6263502ce953d769893a136fffc16e2a
     Pseudo is Norm-conserving, Zval =  7.0
     Generated by new atomic code, or converted to UPF format
     Using radial grid of 1157 points,  2 beta functions with: 
                l(1) =   0
                l(2) =   1

     atomic species   valence    mass     pseudopotential
     Li                1.00     6.94100     Li( 1.00)
     Al                3.00    26.98154     Al( 1.00)
     Cl                7.00    35.45300     Cl( 1.00)

      4 Sym. Ops., with inversion, found ( 2 have fractional translation)


                                    s                        frac. trans.

      isym =  1     identity                                     

 cryst.   s( 1) = (     1          0          0      )
                  (     0          1          0      )
                  (     0          0          1      )

 cart.    s( 1) = (  1.0000000  0.0000000  0.0000000 )
                  (  0.0000000  1.0000000  0.0000000 )
                  (  0.0000000  0.0000000  1.0000000 )


      isym =  2     180 deg rotation - cart. axis [0,1,0]        

 cryst.   s( 2) = (     1          0          0      )    f =( -0.5000000 )
                  (     0         -1          0      )       (  0.0000000 )
                  (     0          0         -1      )       (  0.5000000 )

 cart.    s( 2) = ( -1.0000000  0.0000000  0.0000000 )    f =(  0.0000000 )
                  (  0.0000000  1.0000000  0.0000000 )       (  0.5000000 )
                  ( -0.0000000  0.0000000 -1.0000000 )       ( -0.9992311 )


      isym =  3     inversion                                    

 cryst.   s( 3) = (    -1          0          0      )
                  (     0         -1          0      )
                  (     0          0         -1      )

 cart.    s( 3) = ( -1.0000000  0.0000000  0.0000000 )
                  (  0.0000000 -1.0000000  0.0000000 )
                  ( -0.0000000  0.0000000 -1.0000000 )


      isym =  4     inv. 180 deg rotation - cart. axis [0,1,0]   

 cryst.   s( 4) = (    -1          0          0      )    f =(  0.5000000 )
                  (     0          1          0      )       (  0.0000000 )
                  (     0          0          1      )       ( -0.5000000 )

 cart.    s( 4) = (  1.0000000  0.0000000  0.0000000 )    f =( -0.0000000 )
                  (  0.0000000 -1.0000000  0.0000000 )       ( -0.5000000 )
                  (  0.0000000  0.0000000  1.0000000 )       (  0.9992311 )


   Cartesian axes

     site n.     atom                  positions (alat units)
         1        Li     tau(   1) = (  -0.9056877  -0.4850000  -0.2183702  )
         2        Li     tau(   2) = (  -0.1695678  -0.9850000  -0.7188621  )
         3        Li     tau(   3) = (  -0.1695678  -0.5150000  -1.7180932  )
         4        Li     tau(   4) = (  -0.9056877  -0.0150000  -1.2176013  )
         5        Al     tau(   5) = (  -0.3162326  -0.8217000  -1.1827820  )
         6        Al     tau(   6) = (  -0.7590228  -0.3217000  -1.7529125  )
         7        Al     tau(   7) = (  -0.7590228  -0.1783000  -0.7536814  )
         8        Al     tau(   8) = (  -0.3162326  -0.6783000  -0.1835509  )
         9        Cl     tau(   9) = (  -0.3292432  -0.6832000  -0.8869788  )
        10        Cl     tau(  10) = (  -0.7460122  -0.1832000  -0.0502534  )
        11        Cl     tau(  11) = (  -0.7460122  -0.3168000  -1.0494846  )
        12        Cl     tau(  12) = (  -0.3292432  -0.8168000  -1.8862100  )
        13        Cl     tau(  13) = (  -0.2058039  -0.1281000  -1.1300747  )
        14        Cl     tau(  14) = (  -0.8694515  -0.6281000  -1.8056198  )
        15        Cl     tau(  15) = (  -0.8694515  -0.8719000  -0.8063887  )
        16        Cl     tau(  16) = (  -0.2058039  -0.3719000  -0.1308436  )
        17        Cl     tau(  17) = (  -0.0801065  -0.6812000  -1.3666060  )
        18        Cl     tau(  18) = (  -0.9951489  -0.1812000  -1.5690886  )
        19        Cl     tau(  19) = (  -0.9951489  -0.3188000  -0.5698574  )
        20        Cl     tau(  20) = (  -0.0801065  -0.8188000  -0.3673748  )
        21        Cl     tau(  21) = (  -0.6024656  -0.8140000  -1.3383055  )
        22        Cl     tau(  22) = (  -0.4727898  -0.3140000  -1.5973890  )
        23        Cl     tau(  23) = (  -0.4727898  -0.1860000  -0.5981579  )
        24        Cl     tau(  24) = (  -0.6024656  -0.6860000  -0.3390744  )

   Crystallographic axes

     site n.     atom                  positions (cryst. coord.)
         1        Li     tau(   1) = (  0.4850000  0.8423000  0.1354000  )
         2        Li     tau(   2) = (  0.9850000  0.1577000  0.3646000  )
         3        Li     tau(   3) = (  0.5150000  0.1577000  0.8646000  )
         4        Li     tau(   4) = (  0.0150000  0.8423000  0.6354000  )
         5        Al     tau(   5) = (  0.8217000  0.2941000  0.6009700  )
         6        Al     tau(   6) = (  0.3217000  0.7059000  0.8990300  )
         7        Al     tau(   7) = (  0.1783000  0.7059000  0.3990300  )
         8        Al     tau(   8) = (  0.6783000  0.2941000  0.1009700  )
         9        Cl     tau(   9) = (  0.6832000  0.3062000  0.4533300  )
        10        Cl     tau(  10) = (  0.1832000  0.6938000  0.0466700  )
        11        Cl     tau(  11) = (  0.3168000  0.6938000  0.5466700  )
        12        Cl     tau(  12) = (  0.8168000  0.3062000  0.9533300  )
        13        Cl     tau(  13) = (  0.1281000  0.1914000  0.5714100  )
        14        Cl     tau(  14) = (  0.6281000  0.8086000  0.9285900  )
        15        Cl     tau(  15) = (  0.8719000  0.8086000  0.4285900  )
        16        Cl     tau(  16) = (  0.3719000  0.1914000  0.0714100  )
        17        Cl     tau(  17) = (  0.6812000  0.0745000  0.6861400  )
        18        Cl     tau(  18) = (  0.1812000  0.9255000  0.8138600  )
        19        Cl     tau(  19) = (  0.3188000  0.9255000  0.3138600  )
        20        Cl     tau(  20) = (  0.8188000  0.0745000  0.1861400  )
        21        Cl     tau(  21) = (  0.8140000  0.5603000  0.6870500  )
        22        Cl     tau(  22) = (  0.3140000  0.4397000  0.8129500  )
        23        Cl     tau(  23) = (  0.1860000  0.4397000  0.3129500  )
        24        Cl     tau(  24) = (  0.6860000  0.5603000  0.1870500  )

     number of k points=    39
                       cart. coord. in units 2pi/alat
        k(    1) = (  -0.0000000   0.0000000   0.0000000), wk =   0.0160000
        k(    2) = (  -0.0057704   0.0000000  -0.1000769), wk =   0.0320000
        k(    3) = (  -0.0115408   0.0000000  -0.2001539), wk =   0.0320000
        k(    4) = (  -0.1860023   0.0000000   0.0000000), wk =   0.0320000
        k(    5) = (  -0.1917727   0.0000000  -0.1000769), wk =   0.0320000
        k(    6) = (  -0.1975431   0.0000000  -0.2001539), wk =   0.0320000
        k(    7) = (  -0.1744615   0.0000000   0.2001539), wk =   0.0320000
        k(    8) = (  -0.1802319   0.0000000   0.1000769), wk =   0.0320000
        k(    9) = (  -0.3720046   0.0000000   0.0000000), wk =   0.0320000
        k(   10) = (  -0.3777750   0.0000000  -0.1000769), wk =   0.0320000
        k(   11) = (  -0.3835454   0.0000000  -0.2001539), wk =   0.0320000
        k(   12) = (  -0.3604638   0.0000000   0.2001539), wk =   0.0320000
        k(   13) = (  -0.3662342   0.0000000   0.1000769), wk =   0.0320000
        k(   14) = (  -0.0000000  -0.2000000   0.0000000), wk =   0.0320000
        k(   15) = (  -0.0057704  -0.2000000  -0.1000769), wk =   0.0640000
        k(   16) = (  -0.0115408  -0.2000000  -0.2001539), wk =   0.0640000
        k(   17) = (  -0.1860023  -0.2000000   0.0000000), wk =   0.0640000
        k(   18) = (  -0.1917727  -0.2000000  -0.1000769), wk =   0.0640000
        k(   19) = (  -0.1975431  -0.2000000  -0.2001539), wk =   0.0640000
        k(   20) = (  -0.1744615  -0.2000000   0.2001539), wk =   0.0640000
        k(   21) = (  -0.1802319  -0.2000000   0.1000769), wk =   0.0640000
        k(   22) = (  -0.3720046  -0.2000000   0.0000000), wk =   0.0640000
        k(   23) = (  -0.3777750  -0.2000000  -0.1000769), wk =   0.0640000
        k(   24) = (  -0.3835454  -0.2000000  -0.2001539), wk =   0.0640000
        k(   25) = (  -0.3604638  -0.2000000   0.2001539), wk =   0.0640000
        k(   26) = (  -0.3662342  -0.2000000   0.1000769), wk =   0.0640000
        k(   27) = (  -0.0000000  -0.4000000   0.0000000), wk =   0.0320000
        k(   28) = (  -0.0057704  -0.4000000  -0.1000769), wk =   0.0640000
        k(   29) = (  -0.0115408  -0.4000000  -0.2001539), wk =   0.0640000
        k(   30) = (  -0.1860023  -0.4000000   0.0000000), wk =   0.0640000
        k(   31) = (  -0.1917727  -0.4000000  -0.1000769), wk =   0.0640000
        k(   32) = (  -0.1975431  -0.4000000  -0.2001539), wk =   0.0640000
        k(   33) = (  -0.1744615  -0.4000000   0.2001539), wk =   0.0640000
        k(   34) = (  -0.1802319  -0.4000000   0.1000769), wk =   0.0640000
        k(   35) = (  -0.3720046  -0.4000000   0.0000000), wk =   0.0640000
        k(   36) = (  -0.3777750  -0.4000000  -0.1000769), wk =   0.0640000
        k(   37) = (  -0.3835454  -0.4000000  -0.2001539), wk =   0.0640000
        k(   38) = (  -0.3604638  -0.4000000   0.2001539), wk =   0.0640000
        k(   39) = (  -0.3662342  -0.4000000   0.1000769), wk =   0.0640000

                       cryst. coord.
        k(    1) = (   0.0000000   0.0000000   0.0000000), wk =   0.0160000
        k(    2) = (   0.0000000  -0.0000000   0.2000000), wk =   0.0320000
        k(    3) = (   0.0000000  -0.0000000   0.4000000), wk =   0.0320000
        k(    4) = (   0.0000000   0.2000000   0.0000000), wk =   0.0320000
        k(    5) = (   0.0000000   0.2000000   0.2000000), wk =   0.0320000
        k(    6) = (   0.0000000   0.2000000   0.4000000), wk =   0.0320000
        k(    7) = (   0.0000000   0.2000000  -0.4000000), wk =   0.0320000
        k(    8) = (   0.0000000   0.2000000  -0.2000000), wk =   0.0320000
        k(    9) = (   0.0000000   0.4000000   0.0000000), wk =   0.0320000
        k(   10) = (   0.0000000   0.4000000   0.2000000), wk =   0.0320000
        k(   11) = (   0.0000000   0.4000000   0.4000000), wk =   0.0320000
        k(   12) = (   0.0000000   0.4000000  -0.4000000), wk =   0.0320000
        k(   13) = (   0.0000000   0.4000000  -0.2000000), wk =   0.0320000
        k(   14) = (   0.2000000   0.0000000  -0.0000000), wk =   0.0320000
        k(   15) = (   0.2000000  -0.0000000   0.2000000), wk =   0.0640000
        k(   16) = (   0.2000000  -0.0000000   0.4000000), wk =   0.0640000
        k(   17) = (   0.2000000   0.2000000  -0.0000000), wk =   0.0640000
        k(   18) = (   0.2000000   0.2000000   0.2000000), wk =   0.0640000
        k(   19) = (   0.2000000   0.2000000   0.4000000), wk =   0.0640000
        k(   20) = (   0.2000000   0.2000000  -0.4000000), wk =   0.0640000
        k(   21) = (   0.2000000   0.2000000  -0.2000000), wk =   0.0640000
        k(   22) = (   0.2000000   0.4000000  -0.0000000), wk =   0.0640000
        k(   23) = (   0.2000000   0.4000000   0.2000000), wk =   0.0640000
        k(   24) = (   0.2000000   0.4000000   0.4000000), wk =   0.0640000
        k(   25) = (   0.2000000   0.4000000  -0.4000000), wk =   0.0640000
        k(   26) = (   0.2000000   0.4000000  -0.2000000), wk =   0.0640000
        k(   27) = (   0.4000000   0.0000000  -0.0000000), wk =   0.0320000
        k(   28) = (   0.4000000  -0.0000000   0.2000000), wk =   0.0640000
        k(   29) = (   0.4000000  -0.0000000   0.4000000), wk =   0.0640000
        k(   30) = (   0.4000000   0.2000000  -0.0000000), wk =   0.0640000
        k(   31) = (   0.4000000   0.2000000   0.2000000), wk =   0.0640000
        k(   32) = (   0.4000000   0.2000000   0.4000000), wk =   0.0640000
        k(   33) = (   0.4000000   0.2000000  -0.4000000), wk =   0.0640000
        k(   34) = (   0.4000000   0.2000000  -0.2000000), wk =   0.0640000
        k(   35) = (   0.4000000   0.4000000  -0.0000000), wk =   0.0640000
        k(   36) = (   0.4000000   0.4000000   0.2000000), wk =   0.0640000
        k(   37) = (   0.4000000   0.4000000   0.4000000), wk =   0.0640000
        k(   38) = (   0.4000000   0.4000000  -0.4000000), wk =   0.0640000
        k(   39) = (   0.4000000   0.4000000  -0.2000000), wk =   0.0640000

     Dense  grid:   989717 G-vectors     FFT dimensions: (  96, 108, 192)

     Smooth grid:   250423 G-vectors     FFT dimensions: (  64,  72, 128)

     Dynamical RAM for                 wfc:       7.64 MB

     Dynamical RAM for     wfc (w. buffer):     305.62 MB

     Dynamical RAM for           str. fact:      11.33 MB

     Dynamical RAM for           local pot:       0.00 MB

     Dynamical RAM for          nlocal pot:      10.03 MB

     Dynamical RAM for                qrad:       0.51 MB

     Dynamical RAM for          rho,v,vnew:      22.72 MB

     Dynamical RAM for               rhoin:       7.57 MB

     Dynamical RAM for            rho*nmix:      60.41 MB

     Dynamical RAM for           G-vectors:      14.64 MB

     Dynamical RAM for          h,s,v(r/c):       0.75 MB

     Dynamical RAM for          <psi|beta>:       0.08 MB

     Dynamical RAM for                 psi:      15.28 MB

     Dynamical RAM for                hpsi:      15.28 MB

     Dynamical RAM for      wfcinit/wfcrot:      51.65 MB

     Estimated static dynamical RAM per process >     406.50 MB

     Estimated max dynamical RAM per process >     518.55 MB

     Estimated total dynamical RAM >       2.03 GB

     Initial potential from superposition of free atoms

     starting charge     117.3963, renormalised to     128.0000
     Starting wfcs are  212 randomized atomic wfcs

     total cpu time spent up to now is      500.2 secs

     Self-consistent Calculation

     iteration #  1     ecut=    60.00 Ry     beta= 0.40
     Davidson diagonalization with overlap

---- Real-time Memory Report at c_bands before calling an iterative solver
           625 MiB given to the printing process from OS
             0 MiB allocation reported by mallinfo(arena+hblkhd)
         63355 MiB available memory on the node where the printing process lives
------------------
     ethr =  1.00E-02,  avg # of iterations =  2.0

     Threshold (ethr) on eigenvalues was too large:
     Diagonalizing with lowered threshold

     Davidson diagonalization with overlap

---- Real-time Memory Report at c_bands before calling an iterative solver
           625 MiB given to the printing process from OS
             0 MiB allocation reported by mallinfo(arena+hblkhd)
         63228 MiB available memory on the node where the printing process lives
------------------
     ethr =  2.28E-04,  avg # of iterations =  3.0

     total cpu time spent up to now is     1449.6 secs

     total energy              =    -501.63207330 Ry
     estimated scf accuracy    <       0.34388822 Ry

     iteration #  2     ecut=    60.00 Ry     beta= 0.40
     Davidson diagonalization with overlap

---- Real-time Memory Report at c_bands before calling an iterative solver
           662 MiB given to the printing process from OS
             0 MiB allocation reported by mallinfo(arena+hblkhd)
         63167 MiB available memory on the node where the printing process lives
------------------
     ethr =  2.69E-04,  avg # of iterations =  1.0

     total cpu time spent up to now is     1822.9 secs

     total energy              =    -501.64853920 Ry
     estimated scf accuracy    <       0.08804281 Ry

     iteration #  3     ecut=    60.00 Ry     beta= 0.40
     Davidson diagonalization with overlap

---- Real-time Memory Report at c_bands before calling an iterative solver
           664 MiB given to the printing process from OS
             0 MiB allocation reported by mallinfo(arena+hblkhd)
         63076 MiB available memory on the node where the printing process lives
------------------
     ethr =  6.88E-05,  avg # of iterations =  2.0

     total cpu time spent up to now is     2311.1 secs

     total energy              =    -501.65823862 Ry
     estimated scf accuracy    <       0.01174366 Ry

     iteration #  4     ecut=    60.00 Ry     beta= 0.40
     Davidson diagonalization with overlap

---- Real-time Memory Report at c_bands before calling an iterative solver
           666 MiB given to the printing process from OS
             0 MiB allocation reported by mallinfo(arena+hblkhd)
         62749 MiB available memory on the node where the printing process lives
------------------
     ethr =  9.17E-06,  avg # of iterations =  2.0

     total cpu time spent up to now is     2828.5 secs

     total energy              =    -501.66086733 Ry
     estimated scf accuracy    <       0.00495516 Ry

     iteration #  5     ecut=    60.00 Ry     beta= 0.40
     Davidson diagonalization with overlap

---- Real-time Memory Report at c_bands before calling an iterative solver
           668 MiB given to the printing process from OS
             0 MiB allocation reported by mallinfo(arena+hblkhd)
         25650 MiB available memory on the node where the printing process lives
------------------
     ethr =  3.87E-06,  avg # of iterations =  2.0

     total cpu time spent up to now is     3297.4 secs

     total energy              =    -501.66123959 Ry
     estimated scf accuracy    <       0.00039992 Ry

     iteration #  6     ecut=    60.00 Ry     beta= 0.40
     Davidson diagonalization with overlap

---- Real-time Memory Report at c_bands before calling an iterative solver
           670 MiB given to the printing process from OS
             0 MiB allocation reported by mallinfo(arena+hblkhd)
         38619 MiB available memory on the node where the printing process lives
------------------
     ethr =  3.12E-07,  avg # of iterations =  3.0

     total cpu time spent up to now is     3900.8 secs

     total energy              =    -501.66141159 Ry
     estimated scf accuracy    <       0.00040081 Ry

     iteration #  7     ecut=    60.00 Ry     beta= 0.40
     Davidson diagonalization with overlap

---- Real-time Memory Report at c_bands before calling an iterative solver
           672 MiB given to the printing process from OS
             0 MiB allocation reported by mallinfo(arena+hblkhd)
         26695 MiB available memory on the node where the printing process lives
------------------
     ethr =  3.12E-07,  avg # of iterations =  2.0

     total cpu time spent up to now is     4848.7 secs

     total energy              =    -501.66145468 Ry
     estimated scf accuracy    <       0.00002025 Ry

     iteration #  8     ecut=    60.00 Ry     beta= 0.40
     Davidson diagonalization with overlap

---- Real-time Memory Report at c_bands before calling an iterative solver
           674 MiB given to the printing process from OS
             0 MiB allocation reported by mallinfo(arena+hblkhd)
         50625 MiB available memory on the node where the printing process lives
------------------
     ethr =  1.58E-08,  avg # of iterations =  3.0

     total cpu time spent up to now is     5561.7 secs

     End of self-consistent calculation

          k =-0.0000 0.0000 0.0000 ( 31289 PWs)   bands (ev):

   -13.6721 -13.5111 -13.4943 -13.3576 -12.9779 -12.9760 -12.9275 -12.8880
   -12.8871 -12.8822 -12.8549 -12.8524 -12.7685 -12.7571 -12.7096 -12.6986
    -4.1250  -4.0786  -4.0641  -4.0195  -2.7977  -2.7417  -2.4998  -2.4431
    -2.3774  -2.3689  -2.3211  -2.1888  -2.1415  -2.1324  -2.0988  -1.9292
    -1.6493  -1.5351  -1.5274  -1.4594  -1.3476  -1.3192  -1.2530  -1.1977
    -1.1674  -1.0898  -0.9530  -0.9273  -0.8758  -0.7756  -0.6843  -0.6713
    -0.5322  -0.5304  -0.5248  -0.3723  -0.3566  -0.3369  -0.3326  -0.2570
    -0.1416  -0.1240  -0.0569  -0.0285  -0.0198   0.0392   0.0428   0.0551

     occupation numbers 
     1.0000   1.0000   1.0000   1.0000   1.0000   1.0000   1.0000   1.0000
     1.0000   1.0000   1.0000   1.0000   1.0000   1.0000   1.0000   1.0000
     1.0000   1.0000   1.0000   1.0000   1.0000   1.0000   1.0000   1.0000
     1.0000   1.0000   1.0000   1.0000   1.0000   1.0000   1.0000   1.0000
     1.0000   1.0000   1.0000   1.0000   1.0000   1.0000   1.0000   1.0000
     1.0000   1.0000   1.0000   1.0000   1.0000   1.0000   1.0000   1.0000
     1.0000   1.0000   1.0000   1.0000   1.0000   1.0000   1.0000   1.0000
     1.0000   1.0000   1.0000   1.0000   1.0000   1.0000   1.0000   1.0000

          k =-0.0058 0.0000-0.1001 ( 31292 PWs)   bands (ev):

   -13.6638 -13.5554 -13.4517 -13.3629 -12.9788 -12.9779 -12.9242 -12.8954
   -12.8859 -12.8781 -12.8549 -12.8528 -12.7675 -12.7584 -12.7080 -12.6993
    -4.1231  -4.0912  -4.0511  -4.0204  -2.7921  -2.7472  -2.4933  -2.4301
    -2.3735  -2.3733  -2.3425  -2.2002  -2.1835  -2.0855  -2.0729  -1.9482
    -1.6720  -1.5893  -1.5035  -1.4625  -1.3433  -1.3364  -1.2370  -1.1709
    -1.1687  -1.0193  -0.9626  -0.9035  -0.8785  -0.8013  -0.6892  -0.6487
    -0.5969  -0.5421  -0.4412  -0.3969  -0.3729  -0.3358  -0.2976  -0.2612
    -0.1466  -0.1367  -0.0639  -0.0339  -0.0211   0.0230   0.0449   0.0508

     occupation numbers 
     1.0000   1.0000   1.0000   1.0000   1.0000   1.0000   1.0000   1.0000
     1.0000   1.0000   1.0000   1.0000   1.0000   1.0000   1.0000   1.0000
     1.0000   1.0000   1.0000   1.0000   1.0000   1.0000   1.0000   1.0000
     1.0000   1.0000   1.0000   1.0000   1.0000   1.0000   1.0000   1.0000
     1.0000   1.0000   1.0000   1.0000   1.0000   1.0000   1.0000   1.0000
     1.0000   1.0000   1.0000   1.0000   1.0000   1.0000   1.0000   1.0000
     1.0000   1.0000   1.0000   1.0000   1.0000   1.0000   1.0000   1.0000
     1.0000   1.0000   1.0000   1.0000   1.0000   1.0000   1.0000   1.0000

          k =-0.0115 0.0000-0.2002 ( 31293 PWs)   bands (ev):

   -13.6399 -13.6025 -13.4096 -13.3797 -12.9803 -12.9803 -12.9168 -12.9068
   -12.8811 -12.8775 -12.8546 -12.8537 -12.7649 -12.7615 -12.7046 -12.7013
    -4.1170  -4.1061  -4.0355  -4.0250  -2.7780  -2.7611  -2.4700  -2.4288
    -2.3812  -2.3671  -2.3421  -2.2865  -2.1417  -2.0863  -2.0178  -1.9785
    -1.6979  -1.6708  -1.4647  -1.4560  -1.3566  -1.3498  -1.2134  -1.1880
    -1.1044  -1.0335  -0.8989  -0.8488  -0.8365  -0.8138  -0.7605  -0.6867
    -0.5625  -0.5109  -0.4506  -0.4425  -0.3475  -0.3146  -0.2930  -0.2702
    -0.1594  -0.1450  -0.0647  -0.0563  -0.0165   0.0007   0.0419   0.0429

     occupation numbers 
     1.0000   1.0000   1.0000   1.0000   1.0000   1.0000   1.0000   1.0000
     1.0000   1.0000   1.0000   1.0000   1.0000   1.0000   1.0000   1.0000
     1.0000   1.0000   1.0000   1.0000   1.0000   1.0000   1.0000   1.0000
     1.0000   1.0000   1.0000   1.0000   1.0000   1.0000   1.0000   1.0000
     1.0000   1.0000   1.0000   1.0000   1.0000   1.0000   1.0000   1.0000
     1.0000   1.0000   1.0000   1.0000   1.0000   1.0000   1.0000   1.0000
     1.0000   1.0000   1.0000   1.0000   1.0000   1.0000   1.0000   1.0000
     1.0000   1.0000   1.0000   1.0000   1.0000   1.0000   1.0000   1.0000

          k =-0.1860 0.0000 0.0000 ( 31314 PWs)   bands (ev):

   -13.6419 -13.4978 -13.4806 -13.3807 -12.9928 -12.9906 -12.9463 -12.9222
   -12.9194 -12.8724 -12.8329 -12.8162 -12.7617 -12.7533 -12.7137 -12.7056
    -4.0889  -4.0478  -4.0163  -3.9926  -2.7696  -2.7082  -2.5327  -2.5031
    -2.3524  -2.2853  -2.2513  -2.2045  -2.1690  -2.1191  -2.0658  -1.9789
    -1.7142  -1.5357  -1.4748  -1.4580  -1.4123  -1.3365  -1.2888  -1.1811
    -1.1144  -1.0882  -0.9854  -0.9020  -0.8081  -0.8050  -0.7041  -0.6523
    -0.6347  -0.5135  -0.4991  -0.4257  -0.3728  -0.3407  -0.3292  -0.3076
    -0.1941  -0.1579  -0.1125  -0.0922  -0.0676  -0.0074   0.0688   0.0690

     occupation numbers 
     1.0000   1.0000   1.0000   1.0000   1.0000   1.0000   1.0000   1.0000
     1.0000   1.0000   1.0000   1.0000   1.0000   1.0000   1.0000   1.0000
     1.0000   1.0000   1.0000   1.0000   1.0000   1.0000   1.0000   1.0000
     1.0000   1.0000   1.0000   1.0000   1.0000   1.0000   1.0000   1.0000
     1.0000   1.0000   1.0000   1.0000   1.0000   1.0000   1.0000   1.0000
     1.0000   1.0000   1.0000   1.0000   1.0000   1.0000   1.0000   1.0000
     1.0000   1.0000   1.0000   1.0000   1.0000   1.0000   1.0000   1.0000
     1.0000   1.0000   1.0000   1.0000   1.0000   1.0000   1.0000   1.0000

          k =-0.1918 0.0000-0.1001 ( 31307 PWs)   bands (ev):

   -13.6328 -13.5396 -13.4434 -13.3840 -12.9986 -12.9761 -12.9480 -12.9302
   -12.9258 -12.8674 -12.8331 -12.8142 -12.7604 -12.7566 -12.7097 -12.7079
    -4.0930  -4.0344  -4.0291  -3.9878  -2.7682  -2.7116  -2.5434  -2.4722
    -2.3729  -2.2784  -2.2699  -2.1756  -2.1536  -2.1229  -2.0769  -2.0245
    -1.7192  -1.5208  -1.4738  -1.4538  -1.3676  -1.3615  -1.3043  -1.2085
    -1.0989  -1.0481  -0.9399  -0.8609  -0.8286  -0.8042  -0.7270  -0.7252
    -0.6755  -0.5152  -0.4627  -0.3821  -0.3592  -0.3582  -0.3337  -0.3323
    -0.1871  -0.1598  -0.1225  -0.0859  -0.0554  -0.0101   0.0647   0.0678

     occupation numbers 
     1.0000   1.0000   1.0000   1.0000   1.0000   1.0000   1.0000   1.0000
     1.0000   1.0000   1.0000   1.0000   1.0000   1.0000   1.0000   1.0000
     1.0000   1.0000   1.0000   1.0000   1.0000   1.0000   1.0000   1.0000
     1.0000   1.0000   1.0000   1.0000   1.0000   1.0000   1.0000   1.0000
     1.0000   1.0000   1.0000   1.0000   1.0000   1.0000   1.0000   1.0000
     1.0000   1.0000   1.0000   1.0000   1.0000   1.0000   1.0000   1.0000
     1.0000   1.0000   1.0000   1.0000   1.0000   1.0000   1.0000   1.0000
     1.0000   1.0000   1.0000   1.0000   1.0000   1.0000   1.0000   1.0000

          k =-0.1975 0.0000-0.2002 ( 31296 PWs)   bands (ev):

   -13.6091 -13.5816 -13.4123 -13.3950 -13.0064 -12.9710 -12.9381 -12.9331
   -12.9264 -12.8735 -12.8323 -12.8179 -12.7577 -12.7554 -12.7143 -12.7034
    -4.0907  -4.0521  -4.0140  -3.9860  -2.7576  -2.7264  -2.5326  -2.4280
    -2.3847  -2.2955  -2.2827  -2.2052  -2.1399  -2.1089  -2.0815  -2.0480
    -1.7165  -1.5961  -1.5052  -1.4599  -1.3821  -1.2930  -1.2564  -1.1965
    -1.0898  -0.9674  -0.9244  -0.8554  -0.8319  -0.8030  -0.7709  -0.6966
    -0.6837  -0.5559  -0.4837  -0.3804  -0.3792  -0.3440  -0.3269  -0.2955
    -0.2063  -0.1910  -0.1064  -0.0820  -0.0582  -0.0300   0.0605   0.0723

     occupation numbers 
     1.0000   1.0000   1.0000   1.0000   1.0000   1.0000   1.0000   1.0000
     1.0000   1.0000   1.0000   1.0000   1.0000   1.0000   1.0000   1.0000
     1.0000   1.0000   1.0000   1.0000   1.0000   1.0000   1.0000   1.0000
     1.0000   1.0000   1.0000   1.0000   1.0000   1.0000   1.0000   1.0000
     1.0000   1.0000   1.0000   1.0000   1.0000   1.0000   1.0000   1.0000
     1.0000   1.0000   1.0000   1.0000   1.0000   1.0000   1.0000   1.0000
     1.0000   1.0000   1.0000   1.0000   1.0000   1.0000   1.0000   1.0000
     1.0000   1.0000   1.0000   1.0000   1.0000   1.0000   1.0000   1.0000

          k =-0.1745 0.0000 0.2002 ( 31296 PWs)   bands (ev):

   -13.6149 -13.5738 -13.4167 -13.3928 -13.0106 -12.9760 -12.9381 -12.9263
   -12.9079 -12.8884 -12.8285 -12.8247 -12.7585 -12.7505 -12.7179 -12.7017
    -4.0814  -4.0675  -4.0040  -3.9900  -2.7452  -2.7396  -2.5193  -2.4479
    -2.3351  -2.3029  -2.2955  -2.2348  -2.1866  -2.0839  -2.0550  -2.0287
    -1.6956  -1.6593  -1.5285  -1.4624  -1.4008  -1.2676  -1.2036  -1.1659
    -1.1001  -1.0130  -0.9316  -0.8738  -0.8630  -0.7955  -0.7122  -0.6469
    -0.5944  -0.5867  -0.5473  -0.4410  -0.3610  -0.3445  -0.2993  -0.2981
    -0.2129  -0.1813  -0.1093  -0.0888  -0.0647  -0.0448   0.0571   0.0823

     occupation numbers 
     1.0000   1.0000   1.0000   1.0000   1.0000   1.0000   1.0000   1.0000
     1.0000   1.0000   1.0000   1.0000   1.0000   1.0000   1.0000   1.0000
     1.0000   1.0000   1.0000   1.0000   1.0000   1.0000   1.0000   1.0000
     1.0000   1.0000   1.0000   1.0000   1.0000   1.0000   1.0000   1.0000
     1.0000   1.0000   1.0000   1.0000   1.0000   1.0000   1.0000   1.0000
     1.0000   1.0000   1.0000   1.0000   1.0000   1.0000   1.0000   1.0000
     1.0000   1.0000   1.0000   1.0000   1.0000   1.0000   1.0000   1.0000
     1.0000   1.0000   1.0000   1.0000   1.0000   1.0000   1.0000   1.0000

          k =-0.1802 0.0000 0.1001 ( 31290 PWs)   bands (ev):

   -13.6359 -13.5310 -13.4501 -13.3832 -13.0062 -12.9830 -12.9420 -12.9189
   -12.9066 -12.8870 -12.8305 -12.8223 -12.7602 -12.7498 -12.7178 -12.7026
    -4.0800  -4.0664  -4.0006  -3.9978  -2.7614  -2.7198  -2.5148  -2.4971
    -2.3113  -2.2960  -2.2585  -2.2494  -2.2137  -2.0854  -2.0496  -1.9852
    -1.6974  -1.6321  -1.5185  -1.4615  -1.4123  -1.2690  -1.2271  -1.1652
    -1.0990  -1.0938  -0.9598  -0.9329  -0.8259  -0.7628  -0.7038  -0.6502
    -0.5937  -0.5270  -0.4988  -0.4979  -0.3589  -0.3252  -0.3210  -0.2995
    -0.2371  -0.1474  -0.1330  -0.0704  -0.0566  -0.0451   0.0620   0.0796

     occupation numbers 
     1.0000   1.0000   1.0000   1.0000   1.0000   1.0000   1.0000   1.0000
     1.0000   1.0000   1.0000   1.0000   1.0000   1.0000   1.0000   1.0000
     1.0000   1.0000   1.0000   1.0000   1.0000   1.0000   1.0000   1.0000
     1.0000   1.0000   1.0000   1.0000   1.0000   1.0000   1.0000   1.0000
     1.0000   1.0000   1.0000   1.0000   1.0000   1.0000   1.0000   1.0000
     1.0000   1.0000   1.0000   1.0000   1.0000   1.0000   1.0000   1.0000
     1.0000   1.0000   1.0000   1.0000   1.0000   1.0000   1.0000   1.0000
     1.0000   1.0000   1.0000   1.0000   1.0000   1.0000   1.0000   1.0000

          k =-0.3720 0.0000 0.0000 ( 31279 PWs)   bands (ev):

   -13.5625 -13.4723 -13.4574 -13.4538 -13.0452 -12.9955 -12.9535 -12.9440
   -12.9401 -12.8848 -12.8091 -12.7945 -12.7478 -12.7443 -12.7225 -12.7195
    -4.0196  -3.9882  -3.9555  -3.9465  -2.6899  -2.6503  -2.5651  -2.4778
    -2.3700  -2.3355  -2.2391  -2.1444  -2.1309  -2.0617  -2.0589  -1.9913
    -1.7572  -1.7449  -1.5583  -1.4938  -1.3238  -1.2655  -1.1695  -1.1481
    -1.1180  -1.0590  -1.0220  -0.9433  -0.8939  -0.8320  -0.6807  -0.6287
    -0.6180  -0.5550  -0.5054  -0.4655  -0.4553  -0.4178  -0.3728  -0.3025
    -0.2716  -0.2469  -0.1924  -0.1252  -0.0533  -0.0359   0.0212   0.0406

     occupation numbers 
     1.0000   1.0000   1.0000   1.0000   1.0000   1.0000   1.0000   1.0000
     1.0000   1.0000   1.0000   1.0000   1.0000   1.0000   1.0000   1.0000
     1.0000   1.0000   1.0000   1.0000   1.0000   1.0000   1.0000   1.0000
     1.0000   1.0000   1.0000   1.0000   1.0000   1.0000   1.0000   1.0000
     1.0000   1.0000   1.0000   1.0000   1.0000   1.0000   1.0000   1.0000
     1.0000   1.0000   1.0000   1.0000   1.0000   1.0000   1.0000   1.0000
     1.0000   1.0000   1.0000   1.0000   1.0000   1.0000   1.0000   1.0000
     1.0000   1.0000   1.0000   1.0000   1.0000   1.0000   1.0000   1.0000

          k =-0.3778 0.0000-0.1001 ( 31281 PWs)   bands (ev):

   -13.5546 -13.4948 -13.4532 -13.4447 -13.0305 -13.0064 -12.9553 -12.9440
   -12.9396 -12.8861 -12.8110 -12.7956 -12.7486 -12.7401 -12.7271 -12.7156
    -4.0236  -3.9810  -3.9568  -3.9481  -2.6876  -2.6561  -2.5391  -2.4930
    -2.3757  -2.3147  -2.2605  -2.1305  -2.1206  -2.0883  -2.0529  -2.0220
    -1.7835  -1.7210  -1.5499  -1.4410  -1.3187  -1.3129  -1.1802  -1.1739
    -1.0778  -1.0399  -0.9869  -0.9459  -0.8810  -0.7998  -0.7418  -0.6778
    -0.6688  -0.5404  -0.4877  -0.4710  -0.4437  -0.4211  -0.3332  -0.3062
    -0.3015  -0.2185  -0.2062  -0.1133  -0.0669  -0.0219   0.0111   0.0542

     occupation numbers 
     1.0000   1.0000   1.0000   1.0000   1.0000   1.0000   1.0000   1.0000
     1.0000   1.0000   1.0000   1.0000   1.0000   1.0000   1.0000   1.0000
     1.0000   1.0000   1.0000   1.0000   1.0000   1.0000   1.0000   1.0000
     1.0000   1.0000   1.0000   1.0000   1.0000   1.0000   1.0000   1.0000
     1.0000   1.0000   1.0000   1.0000   1.0000   1.0000   1.0000   1.0000
     1.0000   1.0000   1.0000   1.0000   1.0000   1.0000   1.0000   1.0000
     1.0000   1.0000   1.0000   1.0000   1.0000   1.0000   1.0000   1.0000
     1.0000   1.0000   1.0000   1.0000   1.0000   1.0000   1.0000   1.0000

          k =-0.3835 0.0000-0.2002 ( 31271 PWs)   bands (ev):

   -13.5364 -13.5212 -13.4500 -13.4413 -13.0222 -13.0103 -12.9552 -12.9417
   -12.9317 -12.8972 -12.8122 -12.8017 -12.7468 -12.7349 -12.7303 -12.7132
    -4.0205  -3.9832  -3.9644  -3.9413  -2.6762  -2.6621  -2.5161  -2.4993
    -2.3908  -2.3154  -2.2473  -2.1313  -2.1140  -2.1062  -2.0706  -2.0432
    -1.7832  -1.6772  -1.5521  -1.4187  -1.4077  -1.3560  -1.1803  -1.1489
    -1.0316  -1.0084  -0.9552  -0.8654  -0.8332  -0.8266  -0.7427  -0.7259
    -0.7244  -0.6435  -0.4694  -0.4638  -0.3965  -0.3811  -0.3719  -0.3277
    -0.2903  -0.2254  -0.1519  -0.1394  -0.1002  -0.0171   0.0173   0.0626

     occupation numbers 
     1.0000   1.0000   1.0000   1.0000   1.0000   1.0000   1.0000   1.0000
     1.0000   1.0000   1.0000   1.0000   1.0000   1.0000   1.0000   1.0000
     1.0000   1.0000   1.0000   1.0000   1.0000   1.0000   1.0000   1.0000
     1.0000   1.0000   1.0000   1.0000   1.0000   1.0000   1.0000   1.0000
     1.0000   1.0000   1.0000   1.0000   1.0000   1.0000   1.0000   1.0000
     1.0000   1.0000   1.0000   1.0000   1.0000   1.0000   1.0000   1.0000
     1.0000   1.0000   1.0000   1.0000   1.0000   1.0000   1.0000   1.0000
     1.0000   1.0000   1.0000   1.0000   1.0000   1.0000   1.0000   1.0000

          k =-0.3605 0.0000 0.2002 ( 31296 PWs)   bands (ev):

   -13.5441 -13.5110 -13.4484 -13.4451 -13.0389 -12.9941 -12.9543 -12.9437
   -12.9170 -12.9107 -12.8081 -12.8073 -12.7452 -12.7386 -12.7265 -12.7144
    -4.0115  -3.9956  -3.9645  -3.9379  -2.6714  -2.6604  -2.5458  -2.4669
    -2.3962  -2.3359  -2.2082  -2.1568  -2.1425  -2.0839  -2.0735  -2.0254
    -1.7653  -1.6573  -1.5644  -1.5104  -1.3897  -1.3579  -1.1705  -1.1066
    -1.0586  -1.0429  -0.9338  -0.8410  -0.8206  -0.7942  -0.7755  -0.7268
    -0.6840  -0.6349  -0.4929  -0.4874  -0.4189  -0.3885  -0.3509  -0.3308
    -0.2436  -0.2124  -0.1959  -0.1258  -0.1222  -0.0235   0.0279   0.0566

     occupation numbers 
     1.0000   1.0000   1.0000   1.0000   1.0000   1.0000   1.0000   1.0000
     1.0000   1.0000   1.0000   1.0000   1.0000   1.0000   1.0000   1.0000
     1.0000   1.0000   1.0000   1.0000   1.0000   1.0000   1.0000   1.0000
     1.0000   1.0000   1.0000   1.0000   1.0000   1.0000   1.0000   1.0000
     1.0000   1.0000   1.0000   1.0000   1.0000   1.0000   1.0000   1.0000
     1.0000   1.0000   1.0000   1.0000   1.0000   1.0000   1.0000   1.0000
     1.0000   1.0000   1.0000   1.0000   1.0000   1.0000   1.0000   1.0000
     1.0000   1.0000   1.0000   1.0000   1.0000   1.0000   1.0000   1.0000

          k =-0.3662 0.0000 0.1001 ( 31256 PWs)   bands (ev):

   -13.5587 -13.4838 -13.4535 -13.4506 -13.0483 -12.9902 -12.9467 -12.9455
   -12.9372 -12.8928 -12.8090 -12.8002 -12.7448 -12.7439 -12.7228 -12.7180
    -4.0094  -3.9995  -3.9613  -3.9396  -2.6831  -2.6496  -2.5670  -2.4655
    -2.3699  -2.3598  -2.2009  -2.1631  -2.1474  -2.0745  -2.0506  -2.0005
    -1.7505  -1.7029  -1.5566  -1.5449  -1.3631  -1.3052  -1.1631  -1.1051
    -1.0964  -1.0524  -1.0117  -0.9026  -0.8506  -0.8235  -0.7258  -0.6394
    -0.6069  -0.5592  -0.5299  -0.5068  -0.4497  -0.4184  -0.3341  -0.3222
    -0.2607  -0.2192  -0.1960  -0.1276  -0.1014  -0.0257   0.0335   0.0393

     occupation numbers 
     1.0000   1.0000   1.0000   1.0000   1.0000   1.0000   1.0000   1.0000
     1.0000   1.0000   1.0000   1.0000   1.0000   1.0000   1.0000   1.0000
     1.0000   1.0000   1.0000   1.0000   1.0000   1.0000   1.0000   1.0000
     1.0000   1.0000   1.0000   1.0000   1.0000   1.0000   1.0000   1.0000
     1.0000   1.0000   1.0000   1.0000   1.0000   1.0000   1.0000   1.0000
     1.0000   1.0000   1.0000   1.0000   1.0000   1.0000   1.0000   1.0000
     1.0000   1.0000   1.0000   1.0000   1.0000   1.0000   1.0000   1.0000
     1.0000   1.0000   1.0000   1.0000   1.0000   1.0000   1.0000   1.0000

          k =-0.0000-0.2000 0.0000 ( 31284 PWs)   bands (ev):

   -13.6438 -13.5033 -13.4794 -13.3738 -12.9874 -12.9809 -12.9261 -12.9012
   -12.8906 -12.8693 -12.8627 -12.8446 -12.7908 -12.7729 -12.7045 -12.6955
    -4.1252  -4.0727  -4.0590  -4.0298  -2.7336  -2.6861  -2.5542  -2.4277
    -2.4004  -2.3613  -2.3257  -2.2636  -2.2185  -2.0279  -2.0055  -1.9159
    -1.6605  -1.6582  -1.4769  -1.4332  -1.3536  -1.3211  -1.2557  -1.2199
    -1.0633  -1.0481  -0.9670  -0.9162  -0.9061  -0.7060  -0.6936  -0.6687
    -0.5845  -0.4813  -0.4769  -0.4310  -0.3724  -0.3535  -0.3343  -0.2438
    -0.1793  -0.1251  -0.0971  -0.0791  -0.0208   0.0342   0.0343   0.0437

     occupation numbers 
     1.0000   1.0000   1.0000   1.0000   1.0000   1.0000   1.0000   1.0000
     1.0000   1.0000   1.0000   1.0000   1.0000   1.0000   1.0000   1.0000
     1.0000   1.0000   1.0000   1.0000   1.0000   1.0000   1.0000   1.0000
     1.0000   1.0000   1.0000   1.0000   1.0000   1.0000   1.0000   1.0000
     1.0000   1.0000   1.0000   1.0000   1.0000   1.0000   1.0000   1.0000
     1.0000   1.0000   1.0000   1.0000   1.0000   1.0000   1.0000   1.0000
     1.0000   1.0000   1.0000   1.0000   1.0000   1.0000   1.0000   1.0000
     1.0000   1.0000   1.0000   1.0000   1.0000   1.0000   1.0000   1.0000

          k =-0.0058-0.2000-0.1001 ( 31291 PWs)   bands (ev):

   -13.6361 -13.5385 -13.4471 -13.3776 -12.9883 -12.9812 -12.9240 -12.9049
   -12.8871 -12.8708 -12.8615 -12.8470 -12.7889 -12.7746 -12.7034 -12.6962
    -4.1224  -4.0849  -4.0482  -4.0295  -2.7274  -2.6894  -2.5455  -2.4369
    -2.4083  -2.3744  -2.3362  -2.2413  -2.1959  -2.0462  -1.9960  -1.9419
    -1.7165  -1.6426  -1.4633  -1.4266  -1.3504  -1.3081  -1.2498  -1.1748
    -1.0808  -1.0298  -0.9768  -0.9223  -0.8708  -0.7509  -0.6941  -0.6206
    -0.5877  -0.5385  -0.4536  -0.4260  -0.3961  -0.3439  -0.3212  -0.2442
    -0.1742  -0.1293  -0.1031  -0.0813  -0.0259   0.0273   0.0298   0.0445

     occupation numbers 
     1.0000   1.0000   1.0000   1.0000   1.0000   1.0000   1.0000   1.0000
     1.0000   1.0000   1.0000   1.0000   1.0000   1.0000   1.0000   1.0000
     1.0000   1.0000   1.0000   1.0000   1.0000   1.0000   1.0000   1.0000
     1.0000   1.0000   1.0000   1.0000   1.0000   1.0000   1.0000   1.0000
     1.0000   1.0000   1.0000   1.0000   1.0000   1.0000   1.0000   1.0000
     1.0000   1.0000   1.0000   1.0000   1.0000   1.0000   1.0000   1.0000
     1.0000   1.0000   1.0000   1.0000   1.0000   1.0000   1.0000   1.0000
     1.0000   1.0000   1.0000   1.0000   1.0000   1.0000   1.0000   1.0000

          k =-0.0115-0.2000-0.2002 ( 31304 PWs)   bands (ev):

   -13.6142 -13.5803 -13.4135 -13.3903 -12.9874 -12.9838 -12.9185 -12.9117
   -12.8808 -12.8750 -12.8579 -12.8524 -12.7842 -12.7788 -12.7007 -12.6979
    -4.1140  -4.1009  -4.0367  -4.0307  -2.7131  -2.6988  -2.5173  -2.4720
    -2.4159  -2.4062  -2.3017  -2.2628  -2.1258  -2.0655  -2.0006  -1.9955
    -1.7272  -1.6890  -1.4199  -1.3911  -1.3570  -1.3524  -1.1653  -1.1414
    -1.1142  -1.0666  -0.9133  -0.8769  -0.8510  -0.8053  -0.6757  -0.6508
    -0.5666  -0.5304  -0.5137  -0.4876  -0.3339  -0.3215  -0.3084  -0.2502
    -0.1785  -0.1467  -0.1097  -0.0942  -0.0143   0.0100   0.0289   0.0388

     occupation numbers 
     1.0000   1.0000   1.0000   1.0000   1.0000   1.0000   1.0000   1.0000
     1.0000   1.0000   1.0000   1.0000   1.0000   1.0000   1.0000   1.0000
     1.0000   1.0000   1.0000   1.0000   1.0000   1.0000   1.0000   1.0000
     1.0000   1.0000   1.0000   1.0000   1.0000   1.0000   1.0000   1.0000
     1.0000   1.0000   1.0000   1.0000   1.0000   1.0000   1.0000   1.0000
     1.0000   1.0000   1.0000   1.0000   1.0000   1.0000   1.0000   1.0000
     1.0000   1.0000   1.0000   1.0000   1.0000   1.0000   1.0000   1.0000
     1.0000   1.0000   1.0000   1.0000   1.0000   1.0000   1.0000   1.0000

          k =-0.1860-0.2000 0.0000 ( 31297 PWs)   bands (ev):

   -13.6154 -13.4901 -13.4668 -13.3887 -12.9964 -12.9934 -12.9602 -12.9285
   -12.9058 -12.8798 -12.8375 -12.8146 -12.7824 -12.7651 -12.7138 -12.7016
    -4.0927  -4.0398  -4.0209  -3.9805  -2.7083  -2.6710  -2.5779  -2.4423
    -2.3913  -2.3408  -2.2513  -2.2294  -2.1784  -2.0984  -1.9926  -1.9627
    -1.7141  -1.6420  -1.4703  -1.4366  -1.3964  -1.3309  -1.2564  -1.1632
    -1.1056  -1.0421  -0.9688  -0.9253  -0.8449  -0.7342  -0.7117  -0.6781
    -0.6137  -0.5214  -0.4787  -0.4406  -0.4146  -0.3504  -0.3380  -0.2764
    -0.2258  -0.1951  -0.1082  -0.0922  -0.0703  -0.0190   0.0385   0.0645

     occupation numbers 
     1.0000   1.0000   1.0000   1.0000   1.0000   1.0000   1.0000   1.0000
     1.0000   1.0000   1.0000   1.0000   1.0000   1.0000   1.0000   1.0000
     1.0000   1.0000   1.0000   1.0000   1.0000   1.0000   1.0000   1.0000
     1.0000   1.0000   1.0000   1.0000   1.0000   1.0000   1.0000   1.0000
     1.0000   1.0000   1.0000   1.0000   1.0000   1.0000   1.0000   1.0000
     1.0000   1.0000   1.0000   1.0000   1.0000   1.0000   1.0000   1.0000
     1.0000   1.0000   1.0000   1.0000   1.0000   1.0000   1.0000   1.0000
     1.0000   1.0000   1.0000   1.0000   1.0000   1.0000   1.0000   1.0000

          k =-0.1918-0.2000-0.1001 ( 31287 PWs)   bands (ev):

   -13.6069 -13.5239 -13.4376 -13.3920 -12.9982 -12.9852 -12.9624 -12.9271
   -12.9172 -12.8768 -12.8337 -12.8153 -12.7823 -12.7668 -12.7123 -12.7019
    -4.0921  -4.0443  -4.0164  -3.9798  -2.7023  -2.6758  -2.5830  -2.4241
    -2.3842  -2.3361  -2.3066  -2.2352  -2.1418  -2.0906  -2.0017  -1.9728
    -1.7375  -1.6483  -1.4630  -1.4287  -1.3644  -1.3263  -1.2579  -1.1937
    -1.0661  -1.0132  -0.9495  -0.9308  -0.8650  -0.7820  -0.7055  -0.6879
    -0.6440  -0.5163  -0.4550  -0.4483  -0.3840  -0.3474  -0.3267  -0.3116
    -0.2034  -0.1919  -0.1241  -0.0896  -0.0707  -0.0260   0.0443   0.0602

     occupation numbers 
     1.0000   1.0000   1.0000   1.0000   1.0000   1.0000   1.0000   1.0000
     1.0000   1.0000   1.0000   1.0000   1.0000   1.0000   1.0000   1.0000
     1.0000   1.0000   1.0000   1.0000   1.0000   1.0000   1.0000   1.0000
     1.0000   1.0000   1.0000   1.0000   1.0000   1.0000   1.0000   1.0000
     1.0000   1.0000   1.0000   1.0000   1.0000   1.0000   1.0000   1.0000
     1.0000   1.0000   1.0000   1.0000   1.0000   1.0000   1.0000   1.0000
     1.0000   1.0000   1.0000   1.0000   1.0000   1.0000   1.0000   1.0000
     1.0000   1.0000   1.0000   1.0000   1.0000   1.0000   1.0000   1.0000

          k =-0.1975-0.2000-0.2002 ( 31290 PWs)   bands (ev):

   -13.5854 -13.5608 -13.4127 -13.4009 -13.0013 -12.9814 -12.9599 -12.9331
   -12.9129 -12.8775 -12.8330 -12.8206 -12.7792 -12.7669 -12.7136 -12.7005
    -4.0914  -4.0464  -4.0171  -3.9757  -2.6944  -2.6873  -2.5692  -2.4003
    -2.3771  -2.3634  -2.3199  -2.2404  -2.1047  -2.0980  -2.0523  -1.9784
    -1.7523  -1.6722  -1.4748  -1.4214  -1.3423  -1.2686  -1.2272  -1.2239
    -1.0617  -0.9771  -0.9516  -0.9126  -0.8330  -0.8128  -0.7211  -0.6935
    -0.6377  -0.5228  -0.5084  -0.4436  -0.4088  -0.3591  -0.3126  -0.2546
    -0.2022  -0.1830  -0.1393  -0.0843  -0.0751  -0.0582   0.0501   0.0566

     occupation numbers 
     1.0000   1.0000   1.0000   1.0000   1.0000   1.0000   1.0000   1.0000
     1.0000   1.0000   1.0000   1.0000   1.0000   1.0000   1.0000   1.0000
     1.0000   1.0000   1.0000   1.0000   1.0000   1.0000   1.0000   1.0000
     1.0000   1.0000   1.0000   1.0000   1.0000   1.0000   1.0000   1.0000
     1.0000   1.0000   1.0000   1.0000   1.0000   1.0000   1.0000   1.0000
     1.0000   1.0000   1.0000   1.0000   1.0000   1.0000   1.0000   1.0000
     1.0000   1.0000   1.0000   1.0000   1.0000   1.0000   1.0000   1.0000
     1.0000   1.0000   1.0000   1.0000   1.0000   1.0000   1.0000   1.0000

          k =-0.1745-0.2000 0.2002 ( 31300 PWs)   bands (ev):

   -13.5910 -13.5530 -13.4191 -13.3967 -13.0042 -12.9843 -12.9573 -12.9339
   -12.9007 -12.8832 -12.8328 -12.8263 -12.7768 -12.7657 -12.7156 -12.6995
    -4.0917  -4.0435  -4.0212  -3.9742  -2.7001  -2.6845  -2.5549  -2.4278
    -2.3783  -2.3559  -2.2914  -2.2299  -2.1465  -2.1042  -2.0198  -2.0031
    -1.7326  -1.6914  -1.4933  -1.4278  -1.3114  -1.2846  -1.2116  -1.1827
    -1.0929  -1.0302  -0.9592  -0.8932  -0.8357  -0.7381  -0.7175  -0.6558
    -0.6018  -0.5904  -0.5313  -0.4670  -0.4323  -0.3423  -0.3079  -0.2574
    -0.2009  -0.1566  -0.1331  -0.1035  -0.0832  -0.0627   0.0480   0.0604

     occupation numbers 
     1.0000   1.0000   1.0000   1.0000   1.0000   1.0000   1.0000   1.0000
     1.0000   1.0000   1.0000   1.0000   1.0000   1.0000   1.0000   1.0000
     1.0000   1.0000   1.0000   1.0000   1.0000   1.0000   1.0000   1.0000
     1.0000   1.0000   1.0000   1.0000   1.0000   1.0000   1.0000   1.0000
     1.0000   1.0000   1.0000   1.0000   1.0000   1.0000   1.0000   1.0000
     1.0000   1.0000   1.0000   1.0000   1.0000   1.0000   1.0000   1.0000
     1.0000   1.0000   1.0000   1.0000   1.0000   1.0000   1.0000   1.0000
     1.0000   1.0000   1.0000   1.0000   1.0000   1.0000   1.0000   1.0000

          k =-0.1802-0.2000 0.1001 ( 31302 PWs)   bands (ev):

   -13.6099 -13.5152 -13.4456 -13.3898 -13.0033 -12.9892 -12.9576 -12.9308
   -12.8944 -12.8869 -12.8374 -12.8210 -12.7790 -12.7641 -12.7159 -12.7001
    -4.0925  -4.0378  -4.0256  -3.9769  -2.7083  -2.6747  -2.5620  -2.4450
    -2.3872  -2.3445  -2.2519  -2.2161  -2.1884  -2.1072  -2.0145  -1.9709
    -1.7024  -1.6821  -1.4966  -1.4341  -1.3624  -1.2935  -1.2131  -1.1756
    -1.1127  -1.0442  -0.9871  -0.9099  -0.8140  -0.7450  -0.6999  -0.6567
    -0.5823  -0.5355  -0.5162  -0.4788  -0.4564  -0.3513  -0.3161  -0.2473
    -0.2240  -0.1784  -0.1294  -0.0859  -0.0603  -0.0557   0.0429   0.0635

     occupation numbers 
     1.0000   1.0000   1.0000   1.0000   1.0000   1.0000   1.0000   1.0000
     1.0000   1.0000   1.0000   1.0000   1.0000   1.0000   1.0000   1.0000
     1.0000   1.0000   1.0000   1.0000   1.0000   1.0000   1.0000   1.0000
     1.0000   1.0000   1.0000   1.0000   1.0000   1.0000   1.0000   1.0000
     1.0000   1.0000   1.0000   1.0000   1.0000   1.0000   1.0000   1.0000
     1.0000   1.0000   1.0000   1.0000   1.0000   1.0000   1.0000   1.0000
     1.0000   1.0000   1.0000   1.0000   1.0000   1.0000   1.0000   1.0000
     1.0000   1.0000   1.0000   1.0000   1.0000   1.0000   1.0000   1.0000

          k =-0.3720-0.2000 0.0000 ( 31285 PWs)   bands (ev):

   -13.5423 -13.4671 -13.4459 -13.4421 -13.0403 -13.0070 -12.9640 -12.9545
   -12.9362 -12.8889 -12.8099 -12.7997 -12.7666 -12.7452 -12.7332 -12.7173
    -4.0255  -4.0044  -3.9333  -3.9125  -2.6396  -2.6355  -2.5936  -2.4705
    -2.4092  -2.3150  -2.2078  -2.1925  -2.1376  -2.0605  -2.0183  -1.9678
    -1.7719  -1.7294  -1.5549  -1.4480  -1.3636  -1.2698  -1.2529  -1.2060
    -1.0678  -1.0289  -0.9827  -0.9377  -0.8684  -0.7885  -0.7288  -0.6746
    -0.5841  -0.5500  -0.5362  -0.5120  -0.4578  -0.3881  -0.3710  -0.2986
    -0.2935  -0.2192  -0.1456  -0.1435  -0.0627  -0.0326  -0.0121   0.0184

     occupation numbers 
     1.0000   1.0000   1.0000   1.0000   1.0000   1.0000   1.0000   1.0000
     1.0000   1.0000   1.0000   1.0000   1.0000   1.0000   1.0000   1.0000
     1.0000   1.0000   1.0000   1.0000   1.0000   1.0000   1.0000   1.0000
     1.0000   1.0000   1.0000   1.0000   1.0000   1.0000   1.0000   1.0000
     1.0000   1.0000   1.0000   1.0000   1.0000   1.0000   1.0000   1.0000
     1.0000   1.0000   1.0000   1.0000   1.0000   1.0000   1.0000   1.0000
     1.0000   1.0000   1.0000   1.0000   1.0000   1.0000   1.0000   1.0000
     1.0000   1.0000   1.0000   1.0000   1.0000   1.0000   1.0000   1.0000

          k =-0.3778-0.2000-0.1001 ( 31290 PWs)   bands (ev):

   -13.5351 -13.4835 -13.4443 -13.4358 -13.0292 -13.0125 -12.9672 -12.9581
   -12.9318 -12.8904 -12.8111 -12.8005 -12.7668 -12.7455 -12.7319 -12.7169
    -4.0285  -4.0005  -3.9318  -3.9148  -2.6425  -2.6376  -2.5757  -2.4839
    -2.3930  -2.3347  -2.2308  -2.1607  -2.1283  -2.0508  -2.0186  -2.0038
    -1.7947  -1.7117  -1.5483  -1.4067  -1.3678  -1.2883  -1.2609  -1.2010
    -1.0715  -1.0263  -0.9680  -0.9337  -0.8568  -0.8058  -0.7622  -0.6882
    -0.5899  -0.5698  -0.5396  -0.4917  -0.4381  -0.3943  -0.3309  -0.3074
    -0.2703  -0.2308  -0.1645  -0.1356  -0.0819  -0.0285  -0.0040   0.0200

     occupation numbers 
     1.0000   1.0000   1.0000   1.0000   1.0000   1.0000   1.0000   1.0000
     1.0000   1.0000   1.0000   1.0000   1.0000   1.0000   1.0000   1.0000
     1.0000   1.0000   1.0000   1.0000   1.0000   1.0000   1.0000   1.0000
     1.0000   1.0000   1.0000   1.0000   1.0000   1.0000   1.0000   1.0000
     1.0000   1.0000   1.0000   1.0000   1.0000   1.0000   1.0000   1.0000
     1.0000   1.0000   1.0000   1.0000   1.0000   1.0000   1.0000   1.0000
     1.0000   1.0000   1.0000   1.0000   1.0000   1.0000   1.0000   1.0000
     1.0000   1.0000   1.0000   1.0000   1.0000   1.0000   1.0000   1.0000

          k =-0.3835-0.2000-0.2002 ( 31296 PWs)   bands (ev):

   -13.5190 -13.5051 -13.4433 -13.4329 -13.0215 -13.0120 -12.9741 -12.9626
   -12.9177 -12.8962 -12.8150 -12.8058 -12.7617 -12.7448 -12.7328 -12.7160
    -4.0292  -3.9967  -3.9383  -3.9111  -2.6453  -2.6343  -2.5599  -2.4862
    -2.3803  -2.3657  -2.2251  -2.1427  -2.1104  -2.0853  -2.0346  -2.0093
    -1.7964  -1.6957  -1.5422  -1.4247  -1.3701  -1.3193  -1.2533  -1.1591
    -1.0930  -1.0186  -0.9778  -0.8926  -0.8124  -0.7991  -0.7576  -0.7051
    -0.6609  -0.6000  -0.5464  -0.4848  -0.4029  -0.3943  -0.3277  -0.2729
    -0.2520  -0.2251  -0.1834  -0.1624  -0.0920  -0.0336   0.0005   0.0250

     occupation numbers 
     1.0000   1.0000   1.0000   1.0000   1.0000   1.0000   1.0000   1.0000
     1.0000   1.0000   1.0000   1.0000   1.0000   1.0000   1.0000   1.0000
     1.0000   1.0000   1.0000   1.0000   1.0000   1.0000   1.0000   1.0000
     1.0000   1.0000   1.0000   1.0000   1.0000   1.0000   1.0000   1.0000
     1.0000   1.0000   1.0000   1.0000   1.0000   1.0000   1.0000   1.0000
     1.0000   1.0000   1.0000   1.0000   1.0000   1.0000   1.0000   1.0000
     1.0000   1.0000   1.0000   1.0000   1.0000   1.0000   1.0000   1.0000
     1.0000   1.0000   1.0000   1.0000   1.0000   1.0000   1.0000   1.0000

          k =-0.3605-0.2000 0.2002 ( 31280 PWs)   bands (ev):

   -13.5261 -13.4953 -13.4449 -13.4339 -13.0332 -12.9993 -12.9770 -12.9622
   -12.9100 -12.9010 -12.8155 -12.8084 -12.7588 -12.7439 -12.7347 -12.7159
    -4.0273  -3.9977  -3.9424  -3.9080  -2.6444  -2.6304  -2.5736  -2.4560
    -2.4256  -2.3368  -2.1992  -2.1832  -2.1113  -2.0894  -2.0364  -1.9930
    -1.7776  -1.7014  -1.5479  -1.4562  -1.3832  -1.3109  -1.2443  -1.1403
    -1.1256  -1.0234  -0.9366  -0.8864  -0.8255  -0.7619  -0.7424  -0.6963
    -0.6750  -0.6132  -0.5618  -0.4880  -0.4218  -0.3762  -0.3253  -0.3063
    -0.2502  -0.1992  -0.1729  -0.1693  -0.1002  -0.0397   0.0076   0.0204

     occupation numbers 
     1.0000   1.0000   1.0000   1.0000   1.0000   1.0000   1.0000   1.0000
     1.0000   1.0000   1.0000   1.0000   1.0000   1.0000   1.0000   1.0000
     1.0000   1.0000   1.0000   1.0000   1.0000   1.0000   1.0000   1.0000
     1.0000   1.0000   1.0000   1.0000   1.0000   1.0000   1.0000   1.0000
     1.0000   1.0000   1.0000   1.0000   1.0000   1.0000   1.0000   1.0000
     1.0000   1.0000   1.0000   1.0000   1.0000   1.0000   1.0000   1.0000
     1.0000   1.0000   1.0000   1.0000   1.0000   1.0000   1.0000   1.0000
     1.0000   1.0000   1.0000   1.0000   1.0000   1.0000   1.0000   1.0000

          k =-0.3662-0.2000 0.1001 ( 31305 PWs)   bands (ev):

   -13.5391 -13.4725 -13.4500 -13.4369 -13.0416 -13.0011 -12.9687 -12.9591
   -12.9250 -12.8915 -12.8162 -12.8008 -12.7627 -12.7435 -12.7354 -12.7166
    -4.0248  -4.0028  -3.9396  -3.9085  -2.6418  -2.6303  -2.5918  -2.4555
    -2.4233  -2.3167  -2.2135  -2.1878  -2.1224  -2.0836  -2.0263  -1.9666
    -1.7568  -1.7268  -1.5536  -1.4776  -1.3806  -1.2678  -1.2519  -1.1792
    -1.1016  -1.0199  -0.9638  -0.9171  -0.8275  -0.7753  -0.7218  -0.6805
    -0.6164  -0.5951  -0.5730  -0.4667  -0.4595  -0.3867  -0.3501  -0.3043
    -0.2919  -0.1930  -0.1681  -0.1420  -0.0765  -0.0463  -0.0001   0.0198

     occupation numbers 
     1.0000   1.0000   1.0000   1.0000   1.0000   1.0000   1.0000   1.0000
     1.0000   1.0000   1.0000   1.0000   1.0000   1.0000   1.0000   1.0000
     1.0000   1.0000   1.0000   1.0000   1.0000   1.0000   1.0000   1.0000
     1.0000   1.0000   1.0000   1.0000   1.0000   1.0000   1.0000   1.0000
     1.0000   1.0000   1.0000   1.0000   1.0000   1.0000   1.0000   1.0000
     1.0000   1.0000   1.0000   1.0000   1.0000   1.0000   1.0000   1.0000
     1.0000   1.0000   1.0000   1.0000   1.0000   1.0000   1.0000   1.0000
     1.0000   1.0000   1.0000   1.0000   1.0000   1.0000   1.0000   1.0000

          k =-0.0000-0.4000 0.0000 ( 31344 PWs)   bands (ev):

   -13.5732 -13.5092 -13.4469 -13.4133 -13.0043 -12.9968 -12.9220 -12.9157
   -12.8838 -12.8742 -12.8539 -12.8463 -12.8096 -12.7957 -12.7036 -12.6997
    -4.1126  -4.0827  -4.0500  -4.0440  -2.5960  -2.5803  -2.5605  -2.5287
    -2.4645  -2.4388  -2.2789  -2.2205  -2.1863  -2.0468  -1.9111  -1.8853
    -1.7030  -1.6935  -1.4855  -1.4571  -1.3595  -1.2718  -1.1992  -1.1972
    -1.0886  -1.0563  -1.0099  -0.8655  -0.8535  -0.7258  -0.7051  -0.6564
    -0.6383  -0.5701  -0.4176  -0.3751  -0.3658  -0.3387  -0.2949  -0.2162
    -0.1914  -0.1796  -0.1594  -0.1421  -0.0149  -0.0147   0.0089   0.0390

     occupation numbers 
     1.0000   1.0000   1.0000   1.0000   1.0000   1.0000   1.0000   1.0000
     1.0000   1.0000   1.0000   1.0000   1.0000   1.0000   1.0000   1.0000
     1.0000   1.0000   1.0000   1.0000   1.0000   1.0000   1.0000   1.0000
     1.0000   1.0000   1.0000   1.0000   1.0000   1.0000   1.0000   1.0000
     1.0000   1.0000   1.0000   1.0000   1.0000   1.0000   1.0000   1.0000
     1.0000   1.0000   1.0000   1.0000   1.0000   1.0000   1.0000   1.0000
     1.0000   1.0000   1.0000   1.0000   1.0000   1.0000   1.0000   1.0000
     1.0000   1.0000   1.0000   1.0000   1.0000   1.0000   1.0000   1.0000

          k =-0.0058-0.4000-0.1001 ( 31340 PWs)   bands (ev):

   -13.5682 -13.5173 -13.4426 -13.4158 -13.0023 -12.9945 -12.9220 -12.9165
   -12.8819 -12.8728 -12.8575 -12.8507 -12.8066 -12.7960 -12.7032 -12.7000
    -4.1094  -4.0849  -4.0494  -4.0435  -2.5889  -2.5799  -2.5619  -2.5324
    -2.4689  -2.4500  -2.2614  -2.2237  -2.1835  -2.0648  -1.9207  -1.9032
    -1.7289  -1.6912  -1.4390  -1.3926  -1.3525  -1.2715  -1.2070  -1.1724
    -1.1099  -1.0721  -1.0315  -0.8941  -0.8386  -0.7355  -0.7139  -0.6762
    -0.6016  -0.5449  -0.4296  -0.3771  -0.3633  -0.3134  -0.2877  -0.2302
    -0.2173  -0.1714  -0.1671  -0.1432  -0.0218  -0.0081   0.0057   0.0366

     occupation numbers 
     1.0000   1.0000   1.0000   1.0000   1.0000   1.0000   1.0000   1.0000
     1.0000   1.0000   1.0000   1.0000   1.0000   1.0000   1.0000   1.0000
     1.0000   1.0000   1.0000   1.0000   1.0000   1.0000   1.0000   1.0000
     1.0000   1.0000   1.0000   1.0000   1.0000   1.0000   1.0000   1.0000
     1.0000   1.0000   1.0000   1.0000   1.0000   1.0000   1.0000   1.0000
     1.0000   1.0000   1.0000   1.0000   1.0000   1.0000   1.0000   1.0000
     1.0000   1.0000   1.0000   1.0000   1.0000   1.0000   1.0000   1.0000
     1.0000   1.0000   1.0000   1.0000   1.0000   1.0000   1.0000   1.0000

          k =-0.0115-0.4000-0.2002 ( 31317 PWs)   bands (ev):

   -13.5543 -13.5354 -13.4330 -13.4230 -12.9969 -12.9930 -12.9210 -12.9186
   -12.8762 -12.8701 -12.8643 -12.8593 -12.8015 -12.7977 -12.7021 -12.7009
    -4.1013  -4.0918  -4.0466  -4.0439  -2.5794  -2.5748  -2.5596  -2.5435
    -2.4757  -2.4688  -2.2338  -2.2237  -2.1696  -2.1168  -1.9327  -1.9255
    -1.7272  -1.7091  -1.3601  -1.3434  -1.3117  -1.2521  -1.2116  -1.1519
    -1.1213  -1.0936  -1.0670  -0.9801  -0.8023  -0.7640  -0.7130  -0.6994
    -0.5436  -0.5165  -0.4338  -0.3987  -0.3414  -0.3071  -0.2627  -0.2576
    -0.2178  -0.1889  -0.1751  -0.1621  -0.0191  -0.0120   0.0124   0.0268

     occupation numbers 
     1.0000   1.0000   1.0000   1.0000   1.0000   1.0000   1.0000   1.0000
     1.0000   1.0000   1.0000   1.0000   1.0000   1.0000   1.0000   1.0000
     1.0000   1.0000   1.0000   1.0000   1.0000   1.0000   1.0000   1.0000
     1.0000   1.0000   1.0000   1.0000   1.0000   1.0000   1.0000   1.0000
     1.0000   1.0000   1.0000   1.0000   1.0000   1.0000   1.0000   1.0000
     1.0000   1.0000   1.0000   1.0000   1.0000   1.0000   1.0000   1.0000
     1.0000   1.0000   1.0000   1.0000   1.0000   1.0000   1.0000   1.0000
     1.0000   1.0000   1.0000   1.0000   1.0000   1.0000   1.0000   1.0000

          k =-0.1860-0.4000 0.0000 ( 31318 PWs)   bands (ev):

   -13.5506 -13.4940 -13.4379 -13.4125 -13.0056 -13.0039 -12.9661 -12.9438
   -12.8982 -12.8841 -12.8416 -12.8206 -12.7960 -12.7847 -12.7132 -12.7079
    -4.0854  -4.0613  -3.9955  -3.9772  -2.6076  -2.6047  -2.5541  -2.4635
    -2.4415  -2.4051  -2.2764  -2.2334  -2.1281  -2.0968  -1.9115  -1.9007
    -1.7371  -1.7113  -1.4888  -1.4678  -1.3437  -1.2819  -1.2265  -1.1344
    -1.1008  -1.0341  -1.0305  -0.9518  -0.8265  -0.7844  -0.7579  -0.6821
    -0.6323  -0.5646  -0.4515  -0.3988  -0.3581  -0.3368  -0.2974  -0.2818
    -0.2354  -0.1793  -0.1442  -0.1288  -0.0643  -0.0315  -0.0116   0.0250

     occupation numbers 
     1.0000   1.0000   1.0000   1.0000   1.0000   1.0000   1.0000   1.0000
     1.0000   1.0000   1.0000   1.0000   1.0000   1.0000   1.0000   1.0000
     1.0000   1.0000   1.0000   1.0000   1.0000   1.0000   1.0000   1.0000
     1.0000   1.0000   1.0000   1.0000   1.0000   1.0000   1.0000   1.0000
     1.0000   1.0000   1.0000   1.0000   1.0000   1.0000   1.0000   1.0000
     1.0000   1.0000   1.0000   1.0000   1.0000   1.0000   1.0000   1.0000
     1.0000   1.0000   1.0000   1.0000   1.0000   1.0000   1.0000   1.0000
     1.0000   1.0000   1.0000   1.0000   1.0000   1.0000   1.0000   1.0000

          k =-0.1918-0.4000-0.1001 ( 31307 PWs)   bands (ev):

   -13.5448 -13.5027 -13.4323 -13.4163 -13.0041 -13.0021 -12.9669 -12.9443
   -12.8931 -12.8821 -12.8452 -12.8312 -12.7913 -12.7832 -12.7129 -12.7078
    -4.0819  -4.0636  -3.9932  -3.9795  -2.6093  -2.5953  -2.5648  -2.4691
    -2.4523  -2.3886  -2.2935  -2.2141  -2.1049  -2.0989  -1.9227  -1.8977
    -1.7816  -1.7522  -1.4327  -1.4253  -1.3279  -1.2719  -1.2480  -1.1514
    -1.0805  -1.0570  -1.0165  -0.9842  -0.8269  -0.7827  -0.7556  -0.6919
    -0.6111  -0.5651  -0.4579  -0.3945  -0.3605  -0.3371  -0.3082  -0.2602
    -0.2438  -0.1788  -0.1358  -0.1286  -0.0703  -0.0401  -0.0059   0.0192

     occupation numbers 
     1.0000   1.0000   1.0000   1.0000   1.0000   1.0000   1.0000   1.0000
     1.0000   1.0000   1.0000   1.0000   1.0000   1.0000   1.0000   1.0000
     1.0000   1.0000   1.0000   1.0000   1.0000   1.0000   1.0000   1.0000
     1.0000   1.0000   1.0000   1.0000   1.0000   1.0000   1.0000   1.0000
     1.0000   1.0000   1.0000   1.0000   1.0000   1.0000   1.0000   1.0000
     1.0000   1.0000   1.0000   1.0000   1.0000   1.0000   1.0000   1.0000
     1.0000   1.0000   1.0000   1.0000   1.0000   1.0000   1.0000   1.0000
     1.0000   1.0000   1.0000   1.0000   1.0000   1.0000   1.0000   1.0000

          k =-0.1975-0.4000-0.2002 ( 31282 PWs)   bands (ev):

   -13.5313 -13.5184 -13.4246 -13.4232 -13.0001 -12.9977 -12.9680 -12.9491
   -12.8921 -12.8859 -12.8406 -12.8292 -12.7943 -12.7841 -12.7135 -12.7073
    -4.0807  -4.0611  -3.9966  -3.9773  -2.6051  -2.5942  -2.5629  -2.4859
    -2.4628  -2.3855  -2.2795  -2.1983  -2.1215  -2.0947  -1.9531  -1.9198
    -1.7821  -1.7492  -1.3957  -1.3671  -1.3241  -1.2626  -1.2301  -1.1913
    -1.1027  -1.0583  -1.0233  -0.9815  -0.8391  -0.7992  -0.7595  -0.6964
    -0.5689  -0.5494  -0.4570  -0.3838  -0.3662  -0.3513  -0.3213  -0.2598
    -0.2181  -0.1844  -0.1455  -0.1276  -0.0798  -0.0594  -0.0006   0.0173

     occupation numbers 
     1.0000   1.0000   1.0000   1.0000   1.0000   1.0000   1.0000   1.0000
     1.0000   1.0000   1.0000   1.0000   1.0000   1.0000   1.0000   1.0000
     1.0000   1.0000   1.0000   1.0000   1.0000   1.0000   1.0000   1.0000
     1.0000   1.0000   1.0000   1.0000   1.0000   1.0000   1.0000   1.0000
     1.0000   1.0000   1.0000   1.0000   1.0000   1.0000   1.0000   1.0000
     1.0000   1.0000   1.0000   1.0000   1.0000   1.0000   1.0000   1.0000
     1.0000   1.0000   1.0000   1.0000   1.0000   1.0000   1.0000   1.0000
     1.0000   1.0000   1.0000   1.0000   1.0000   1.0000   1.0000   1.0000

          k =-0.1745-0.4000 0.2002 ( 31304 PWs)   bands (ev):

   -13.5355 -13.5132 -13.4317 -13.4171 -12.9988 -12.9973 -12.9678 -12.9518
   -12.8956 -12.8910 -12.8298 -12.8221 -12.7992 -12.7881 -12.7141 -12.7072
    -4.0835  -4.0571  -4.0003  -3.9745  -2.6064  -2.5898  -2.5644  -2.4779
    -2.4699  -2.3921  -2.2609  -2.1990  -2.1512  -2.0965  -1.9605  -1.9369
    -1.7422  -1.7156  -1.4393  -1.3554  -1.3293  -1.2744  -1.2012  -1.1934
    -1.1279  -1.0642  -1.0295  -0.9187  -0.8696  -0.8235  -0.7456  -0.6926
    -0.5786  -0.5203  -0.4492  -0.4052  -0.3664  -0.3438  -0.3089  -0.2804
    -0.2062  -0.1905  -0.1547  -0.1244  -0.0826  -0.0641  -0.0026   0.0227

     occupation numbers 
     1.0000   1.0000   1.0000   1.0000   1.0000   1.0000   1.0000   1.0000
     1.0000   1.0000   1.0000   1.0000   1.0000   1.0000   1.0000   1.0000
     1.0000   1.0000   1.0000   1.0000   1.0000   1.0000   1.0000   1.0000
     1.0000   1.0000   1.0000   1.0000   1.0000   1.0000   1.0000   1.0000
     1.0000   1.0000   1.0000   1.0000   1.0000   1.0000   1.0000   1.0000
     1.0000   1.0000   1.0000   1.0000   1.0000   1.0000   1.0000   1.0000
     1.0000   1.0000   1.0000   1.0000   1.0000   1.0000   1.0000   1.0000
     1.0000   1.0000   1.0000   1.0000   1.0000   1.0000   1.0000   1.0000

          k =-0.1802-0.4000 0.1001 ( 31307 PWs)   bands (ev):

   -13.5470 -13.4982 -13.4379 -13.4126 -13.0036 -13.0001 -12.9664 -12.9481
   -12.8992 -12.8899 -12.8295 -12.8167 -12.8006 -12.7889 -12.7139 -12.7075
    -4.0861  -4.0577  -3.9995  -3.9744  -2.6105  -2.5946  -2.5574  -2.4741
    -2.4472  -2.4043  -2.2547  -2.2282  -2.1506  -2.0995  -1.9367  -1.9234
    -1.7091  -1.6915  -1.4943  -1.4359  -1.3454  -1.2613  -1.2098  -1.1656
    -1.1191  -1.0609  -1.0145  -0.9140  -0.8471  -0.8273  -0.7415  -0.6854
    -0.6131  -0.5378  -0.4531  -0.3893  -0.3622  -0.3397  -0.3075  -0.2867
    -0.2245  -0.1713  -0.1630  -0.1261  -0.0747  -0.0458  -0.0075   0.0272

     occupation numbers 
     1.0000   1.0000   1.0000   1.0000   1.0000   1.0000   1.0000   1.0000
     1.0000   1.0000   1.0000   1.0000   1.0000   1.0000   1.0000   1.0000
     1.0000   1.0000   1.0000   1.0000   1.0000   1.0000   1.0000   1.0000
     1.0000   1.0000   1.0000   1.0000   1.0000   1.0000   1.0000   1.0000
     1.0000   1.0000   1.0000   1.0000   1.0000   1.0000   1.0000   1.0000
     1.0000   1.0000   1.0000   1.0000   1.0000   1.0000   1.0000   1.0000
     1.0000   1.0000   1.0000   1.0000   1.0000   1.0000   1.0000   1.0000
     1.0000   1.0000   1.0000   1.0000   1.0000   1.0000   1.0000   1.0000

          k =-0.3720-0.4000 0.0000 ( 31294 PWs)   bands (ev):

   -13.4974 -13.4666 -13.4256 -13.4239 -13.0305 -13.0232 -12.9932 -12.9874
   -12.9059 -12.8891 -12.8275 -12.8168 -12.7721 -12.7609 -12.7337 -12.7274
    -4.0277  -4.0191  -3.8953  -3.8832  -2.6144  -2.6050  -2.5676  -2.5053
    -2.3633  -2.3047  -2.2765  -2.2658  -2.0633  -2.0453  -1.9248  -1.8990
    -1.7813  -1.7380  -1.5546  -1.5127  -1.3305  -1.3007  -1.2673  -1.2063
    -1.0923  -1.0165  -1.0050  -0.9515  -0.8473  -0.8173  -0.7699  -0.7267
    -0.6708  -0.6349  -0.5005  -0.4351  -0.4030  -0.3712  -0.2946  -0.2733
    -0.2327  -0.2206  -0.1539  -0.1339  -0.1147  -0.0743  -0.0389   0.0053

     occupation numbers 
     1.0000   1.0000   1.0000   1.0000   1.0000   1.0000   1.0000   1.0000
     1.0000   1.0000   1.0000   1.0000   1.0000   1.0000   1.0000   1.0000
     1.0000   1.0000   1.0000   1.0000   1.0000   1.0000   1.0000   1.0000
     1.0000   1.0000   1.0000   1.0000   1.0000   1.0000   1.0000   1.0000
     1.0000   1.0000   1.0000   1.0000   1.0000   1.0000   1.0000   1.0000
     1.0000   1.0000   1.0000   1.0000   1.0000   1.0000   1.0000   1.0000
     1.0000   1.0000   1.0000   1.0000   1.0000   1.0000   1.0000   1.0000
     1.0000   1.0000   1.0000   1.0000   1.0000   1.0000   1.0000   1.0000

          k =-0.3778-0.4000-0.1001 ( 31282 PWs)   bands (ev):

   -13.4926 -13.4696 -13.4287 -13.4234 -13.0261 -13.0221 -12.9952 -12.9904
   -12.9034 -12.8908 -12.8259 -12.8164 -12.7737 -12.7610 -12.7338 -12.7277
    -4.0271  -4.0184  -3.8937  -3.8860  -2.6131  -2.6059  -2.5651  -2.5173
    -2.3623  -2.2957  -2.2860  -2.2277  -2.0805  -2.0602  -1.9188  -1.8959
    -1.7945  -1.7374  -1.5451  -1.4944  -1.3652  -1.3407  -1.2242  -1.2055
    -1.1143  -1.0401  -0.9680  -0.9067  -0.8461  -0.8218  -0.8111  -0.7365
    -0.6686  -0.6034  -0.4990  -0.4281  -0.4059  -0.3899  -0.2935  -0.2727
    -0.2169  -0.2110  -0.1699  -0.1406  -0.1075  -0.0725  -0.0359  -0.0032

     occupation numbers 
     1.0000   1.0000   1.0000   1.0000   1.0000   1.0000   1.0000   1.0000
     1.0000   1.0000   1.0000   1.0000   1.0000   1.0000   1.0000   1.0000
     1.0000   1.0000   1.0000   1.0000   1.0000   1.0000   1.0000   1.0000
     1.0000   1.0000   1.0000   1.0000   1.0000   1.0000   1.0000   1.0000
     1.0000   1.0000   1.0000   1.0000   1.0000   1.0000   1.0000   1.0000
     1.0000   1.0000   1.0000   1.0000   1.0000   1.0000   1.0000   1.0000
     1.0000   1.0000   1.0000   1.0000   1.0000   1.0000   1.0000   1.0000
     1.0000   1.0000   1.0000   1.0000   1.0000   1.0000   1.0000   1.0000

          k =-0.3835-0.4000-0.2002 ( 31313 PWs)   bands (ev):

   -13.4835 -13.4755 -13.4324 -13.4247 -13.0193 -13.0166 -13.0014 -12.9945
   -12.9048 -12.8979 -12.8188 -12.8028 -12.7808 -12.7657 -12.7349 -12.7283
    -4.0276  -4.0159  -3.8960  -3.8854  -2.6096  -2.5969  -2.5736  -2.5352
    -2.3572  -2.3132  -2.2493  -2.1805  -2.1019  -2.0920  -1.9324  -1.8959
    -1.7957  -1.7442  -1.5244  -1.4721  -1.3858  -1.3792  -1.2190  -1.1822
    -1.1298  -1.0553  -0.9627  -0.8865  -0.8449  -0.8127  -0.7831  -0.7676
    -0.6628  -0.5857  -0.4829  -0.4354  -0.4113  -0.4071  -0.2964  -0.2670
    -0.2222  -0.2060  -0.1860  -0.1524  -0.0910  -0.0652  -0.0392  -0.0049

     occupation numbers 
     1.0000   1.0000   1.0000   1.0000   1.0000   1.0000   1.0000   1.0000
     1.0000   1.0000   1.0000   1.0000   1.0000   1.0000   1.0000   1.0000
     1.0000   1.0000   1.0000   1.0000   1.0000   1.0000   1.0000   1.0000
     1.0000   1.0000   1.0000   1.0000   1.0000   1.0000   1.0000   1.0000
     1.0000   1.0000   1.0000   1.0000   1.0000   1.0000   1.0000   1.0000
     1.0000   1.0000   1.0000   1.0000   1.0000   1.0000   1.0000   1.0000
     1.0000   1.0000   1.0000   1.0000   1.0000   1.0000   1.0000   1.0000
     1.0000   1.0000   1.0000   1.0000   1.0000   1.0000   1.0000   1.0000

          k =-0.3605-0.4000 0.2002 ( 31302 PWs)   bands (ev):

   -13.4877 -13.4703 -13.4343 -13.4237 -13.0217 -13.0126 -13.0034 -12.9928
   -12.9077 -12.9010 -12.8087 -12.8035 -12.7781 -12.7727 -12.7353 -12.7282
    -4.0284  -4.0151  -3.8982  -3.8829  -2.6008  -2.5917  -2.5904  -2.5327
    -2.3493  -2.3287  -2.2369  -2.1906  -2.1014  -2.0812  -1.9434  -1.9052
    -1.7773  -1.7494  -1.5291  -1.4868  -1.3711  -1.3581  -1.2372  -1.1832
    -1.0886  -1.0769  -0.9937  -0.8959  -0.8382  -0.8001  -0.7760  -0.7492
    -0.6594  -0.6006  -0.4840  -0.4378  -0.4238  -0.3876  -0.2958  -0.2639
    -0.2496  -0.2165  -0.1774  -0.1474  -0.0805  -0.0733  -0.0420   0.0034

     occupation numbers 
     1.0000   1.0000   1.0000   1.0000   1.0000   1.0000   1.0000   1.0000
     1.0000   1.0000   1.0000   1.0000   1.0000   1.0000   1.0000   1.0000
     1.0000   1.0000   1.0000   1.0000   1.0000   1.0000   1.0000   1.0000
     1.0000   1.0000   1.0000   1.0000   1.0000   1.0000   1.0000   1.0000
     1.0000   1.0000   1.0000   1.0000   1.0000   1.0000   1.0000   1.0000
     1.0000   1.0000   1.0000   1.0000   1.0000   1.0000   1.0000   1.0000
     1.0000   1.0000   1.0000   1.0000   1.0000   1.0000   1.0000   1.0000
     1.0000   1.0000   1.0000   1.0000   1.0000   1.0000   1.0000   1.0000

          k =-0.3662-0.4000 0.1001 ( 31319 PWs)   bands (ev):

   -13.4954 -13.4657 -13.4314 -13.4220 -13.0282 -13.0193 -12.9966 -12.9880
   -12.9111 -12.8932 -12.8229 -12.8023 -12.7783 -12.7653 -12.7347 -12.7277
    -4.0286  -4.0170  -3.8976  -3.8817  -2.6079  -2.5990  -2.5808  -2.5142
    -2.3541  -2.3236  -2.2651  -2.2340  -2.0683  -2.0572  -1.9400  -1.9058
    -1.7664  -1.7497  -1.5440  -1.5087  -1.3435  -1.3140  -1.2639  -1.1902
    -1.0798  -1.0305  -1.0219  -0.9556  -0.8327  -0.8006  -0.7558  -0.7340
    -0.6616  -0.6375  -0.4998  -0.4355  -0.4044  -0.3739  -0.3003  -0.2724
    -0.2454  -0.2214  -0.1660  -0.1400  -0.0939  -0.0750  -0.0405   0.0085

     occupation numbers 
     1.0000   1.0000   1.0000   1.0000   1.0000   1.0000   1.0000   1.0000
     1.0000   1.0000   1.0000   1.0000   1.0000   1.0000   1.0000   1.0000
     1.0000   1.0000   1.0000   1.0000   1.0000   1.0000   1.0000   1.0000
     1.0000   1.0000   1.0000   1.0000   1.0000   1.0000   1.0000   1.0000
     1.0000   1.0000   1.0000   1.0000   1.0000   1.0000   1.0000   1.0000
     1.0000   1.0000   1.0000   1.0000   1.0000   1.0000   1.0000   1.0000
     1.0000   1.0000   1.0000   1.0000   1.0000   1.0000   1.0000   1.0000
     1.0000   1.0000   1.0000   1.0000   1.0000   1.0000   1.0000   1.0000

     highest occupied level (ev):     0.0823

!    total energy              =    -501.66146339 Ry
     estimated scf accuracy    <       0.00000060 Ry

     The total energy is the sum of the following terms:
     one-electron contribution =    -127.18868689 Ry
     hartree contribution      =     109.59796850 Ry
     xc contribution           =    -102.57752978 Ry
     ewald contribution        =    -381.49321522 Ry

     convergence has been achieved in   8 iterations

     Forces acting on atoms (cartesian axes, Ry/au):

     atom    1 type  1   force =    -0.00085685    0.00082829    0.00212193
     atom    2 type  1   force =     0.00085685    0.00082829   -0.00212193
     atom    3 type  1   force =     0.00085685   -0.00082829   -0.00212193
     atom    4 type  1   force =    -0.00085685   -0.00082829    0.00212193
     atom    5 type  2   force =    -0.00063290   -0.00219046    0.00223297
     atom    6 type  2   force =     0.00063290   -0.00219046   -0.00223297
     atom    7 type  2   force =     0.00063290    0.00219046   -0.00223297
     atom    8 type  2   force =    -0.00063290    0.00219046    0.00223297
     atom    9 type  3   force =    -0.00029220    0.00640335    0.01335092
     atom   10 type  3   force =     0.00029220    0.00640335   -0.01335092
     atom   11 type  3   force =     0.00029220   -0.00640335   -0.01335092
     atom   12 type  3   force =    -0.00029220   -0.00640335    0.01335092
     atom   13 type  3   force =     0.00557777   -0.01279466    0.00171709
     atom   14 type  3   force =    -0.00557777   -0.01279466   -0.00171709
     atom   15 type  3   force =    -0.00557777    0.01279466   -0.00171709
     atom   16 type  3   force =     0.00557777    0.01279466    0.00171709
     atom   17 type  3   force =     0.01105757    0.00678406   -0.00940779
     atom   18 type  3   force =    -0.01105757    0.00678406    0.00940779
     atom   19 type  3   force =    -0.01105757   -0.00678406    0.00940779
     atom   20 type  3   force =     0.01105757   -0.00678406   -0.00940779
     atom   21 type  3   force =    -0.01357487    0.00062486   -0.00739128
     atom   22 type  3   force =     0.01357487    0.00062486    0.00739128
     atom   23 type  3   force =     0.01357487   -0.00062486    0.00739128
     atom   24 type  3   force =    -0.01357487   -0.00062486   -0.00739128
     The non-local contrib.  to forces
     atom    1 type  1   force =    -0.01739050   -0.01340961   -0.00099249
     atom    2 type  1   force =     0.01739050   -0.01340961    0.00099249
     atom    3 type  1   force =     0.01739050    0.01340961    0.00099249
     atom    4 type  1   force =    -0.01739050    0.01340961   -0.00099249
     atom    5 type  2   force =     0.00087746    0.01439559   -0.03005773
     atom    6 type  2   force =    -0.00087746    0.01439559    0.03005773
     atom    7 type  2   force =    -0.00087746   -0.01439559    0.03005773
     atom    8 type  2   force =     0.00087746   -0.01439559   -0.03005773
     atom    9 type  3   force =     0.03917357   -0.13449060   -0.13749802
     atom   10 type  3   force =    -0.03917357   -0.13449060    0.13749802
     atom   11 type  3   force =    -0.03917357    0.13449060    0.13749802
     atom   12 type  3   force =     0.03917357    0.13449060   -0.13749802
     atom   13 type  3   force =    -0.01222162    0.18712668   -0.01228372
     atom   14 type  3   force =     0.01222162    0.18712668    0.01228372
     atom   15 type  3   force =     0.01222162   -0.18712668    0.01228372
     atom   16 type  3   force =    -0.01222162   -0.18712668   -0.01228372
     atom   17 type  3   force =    -0.14080533   -0.08311457    0.03630269
     atom   18 type  3   force =     0.14080533   -0.08311457   -0.03630269
     atom   19 type  3   force =     0.14080533    0.08311457   -0.03630269
     atom   20 type  3   force =    -0.14080533    0.08311457    0.03630269
     atom   21 type  3   force =     0.11372442   -0.06255030    0.14421609
     atom   22 type  3   force =    -0.11372442   -0.06255030   -0.14421609
     atom   23 type  3   force =    -0.11372442    0.06255030   -0.14421609
     atom   24 type  3   force =     0.11372442    0.06255030    0.14421609
     The ionic contribution  to forces
     atom    1 type  1   force =    -0.02423539   -0.05007099   -0.11403160
     atom    2 type  1   force =     0.02423539   -0.05007099    0.11403160
     atom    3 type  1   force =     0.02423539    0.05007099    0.11403160
     atom    4 type  1   force =    -0.02423539    0.05007099   -0.11403160
     atom    5 type  2   force =    -0.18827817    0.26150167   -0.19527978
     atom    6 type  2   force =     0.18827817    0.26150167    0.19527978
     atom    7 type  2   force =     0.18827817   -0.26150167    0.19527978
     atom    8 type  2   force =    -0.18827817   -0.26150167   -0.19527978
     atom    9 type  3   force =    -0.15118188    2.01723636    2.20437328
     atom   10 type  3   force =     0.15118188    2.01723636   -2.20437328
     atom   11 type  3   force =     0.15118188   -2.01723636   -2.20437328
     atom   12 type  3   force =    -0.15118188   -2.01723636    2.20437328
     atom   13 type  3   force =     0.32252200   -3.04795898   -0.01908978
     atom   14 type  3   force =    -0.32252200   -3.04795898    0.01908978
     atom   15 type  3   force =    -0.32252200    3.04795898    0.01908978
     atom   16 type  3   force =     0.32252200    3.04795898   -0.01908978
     atom   17 type  3   force =     1.72511832    1.44022468   -1.10806173
     atom   18 type  3   force =    -1.72511832    1.44022468    1.10806173
     atom   19 type  3   force =    -1.72511832   -1.44022468    1.10806173
     atom   20 type  3   force =     1.72511832   -1.44022468   -1.10806173
     atom   21 type  3   force =    -1.95880577    0.42461295   -1.37177756
     atom   22 type  3   force =     1.95880577    0.42461295    1.37177756
     atom   23 type  3   force =     1.95880577   -0.42461295    1.37177756
     atom   24 type  3   force =    -1.95880577   -0.42461295   -1.37177756
     The local contribution  to forces
     atom    1 type  1   force =     0.03814113    0.06228594    0.11695053
     atom    2 type  1   force =    -0.03814113    0.06228594   -0.11695053
     atom    3 type  1   force =    -0.03814113   -0.06228594   -0.11695053
     atom    4 type  1   force =     0.03814113   -0.06228594    0.11695053
     atom    5 type  2   force =     0.18676364   -0.27810357    0.22758818
     atom    6 type  2   force =    -0.18676364   -0.27810357   -0.22758818
     atom    7 type  2   force =    -0.18676364    0.27810357   -0.22758818
     atom    8 type  2   force =     0.18676364    0.27810357    0.22758818
     atom    9 type  3   force =     0.11165027   -1.87665110   -2.05396201
     atom   10 type  3   force =    -0.11165027   -1.87665110    2.05396201
     atom   11 type  3   force =    -0.11165027    1.87665110    2.05396201
     atom   12 type  3   force =     0.11165027    1.87665110   -2.05396201
     atom   13 type  3   force =    -0.30488642    2.84852612    0.03316332
     atom   14 type  3   force =     0.30488642    2.84852612   -0.03316332
     atom   15 type  3   force =     0.30488642   -2.84852612   -0.03316332
     atom   16 type  3   force =    -0.30488642   -2.84852612    0.03316332
     atom   17 type  3   force =    -1.57362310   -1.35054870    1.06263800
     atom   18 type  3   force =     1.57362310   -1.35054870   -1.06263800
     atom   19 type  3   force =     1.57362310    1.35054870   -1.06263800
     atom   20 type  3   force =    -1.57362310    1.35054870    1.06263800
     atom   21 type  3   force =     1.83192499   -0.36151406    1.22046745
     atom   22 type  3   force =    -1.83192499   -0.36151406   -1.22046745
     atom   23 type  3   force =    -1.83192499    0.36151406   -1.22046745
     atom   24 type  3   force =     1.83192499    0.36151406    1.22046745
     The core correction contribution to forces
     atom    1 type  1   force =     0.00263308    0.00202212    0.00021083
     atom    2 type  1   force =    -0.00263308    0.00202212   -0.00021083
     atom    3 type  1   force =    -0.00263308   -0.00202212   -0.00021083
     atom    4 type  1   force =     0.00263308   -0.00202212    0.00021083
     atom    5 type  2   force =     0.00000000    0.00000000    0.00000000
     atom    6 type  2   force =     0.00000000    0.00000000    0.00000000
     atom    7 type  2   force =     0.00000000    0.00000000    0.00000000
     atom    8 type  2   force =     0.00000000    0.00000000    0.00000000
     atom    9 type  3   force =     0.00000000    0.00000000    0.00000000
     atom   10 type  3   force =     0.00000000    0.00000000    0.00000000
     atom   11 type  3   force =     0.00000000    0.00000000    0.00000000
     atom   12 type  3   force =     0.00000000    0.00000000    0.00000000
     atom   13 type  3   force =     0.00000000    0.00000000    0.00000000
     atom   14 type  3   force =     0.00000000    0.00000000    0.00000000
     atom   15 type  3   force =     0.00000000    0.00000000    0.00000000
     atom   16 type  3   force =     0.00000000    0.00000000    0.00000000
     atom   17 type  3   force =     0.00000000    0.00000000    0.00000000
     atom   18 type  3   force =     0.00000000    0.00000000    0.00000000
     atom   19 type  3   force =     0.00000000    0.00000000    0.00000000
     atom   20 type  3   force =     0.00000000    0.00000000    0.00000000
     atom   21 type  3   force =     0.00000000    0.00000000    0.00000000
     atom   22 type  3   force =     0.00000000    0.00000000    0.00000000
     atom   23 type  3   force =     0.00000000    0.00000000    0.00000000
     atom   24 type  3   force =     0.00000000    0.00000000    0.00000000
     The Hubbard contrib.    to forces
     atom    1 type  1   force =     0.00000000    0.00000000    0.00000000
     atom    2 type  1   force =     0.00000000    0.00000000    0.00000000
     atom    3 type  1   force =     0.00000000    0.00000000    0.00000000
     atom    4 type  1   force =     0.00000000    0.00000000    0.00000000
     atom    5 type  2   force =     0.00000000    0.00000000    0.00000000
     atom    6 type  2   force =     0.00000000    0.00000000    0.00000000
     atom    7 type  2   force =     0.00000000    0.00000000    0.00000000
     atom    8 type  2   force =     0.00000000    0.00000000    0.00000000
     atom    9 type  3   force =     0.00000000    0.00000000    0.00000000
     atom   10 type  3   force =     0.00000000    0.00000000    0.00000000
     atom   11 type  3   force =     0.00000000    0.00000000    0.00000000
     atom   12 type  3   force =     0.00000000    0.00000000    0.00000000
     atom   13 type  3   force =     0.00000000    0.00000000    0.00000000
     atom   14 type  3   force =     0.00000000    0.00000000    0.00000000
     atom   15 type  3   force =     0.00000000    0.00000000    0.00000000
     atom   16 type  3   force =     0.00000000    0.00000000    0.00000000
     atom   17 type  3   force =     0.00000000    0.00000000    0.00000000
     atom   18 type  3   force =     0.00000000    0.00000000    0.00000000
     atom   19 type  3   force =     0.00000000    0.00000000    0.00000000
     atom   20 type  3   force =     0.00000000    0.00000000    0.00000000
     atom   21 type  3   force =     0.00000000    0.00000000    0.00000000
     atom   22 type  3   force =     0.00000000    0.00000000    0.00000000
     atom   23 type  3   force =     0.00000000    0.00000000    0.00000000
     atom   24 type  3   force =     0.00000000    0.00000000    0.00000000
     The SCF correction term to forces
     atom    1 type  1   force =    -0.00000518    0.00000084   -0.00001534
     atom    2 type  1   force =     0.00000518    0.00000084    0.00001534
     atom    3 type  1   force =     0.00000518   -0.00000084    0.00001534
     atom    4 type  1   force =    -0.00000518   -0.00000084   -0.00001534
     atom    5 type  2   force =     0.00000418    0.00001585   -0.00001769
     atom    6 type  2   force =    -0.00000418    0.00001585    0.00001769
     atom    7 type  2   force =    -0.00000418   -0.00001585    0.00001769
     atom    8 type  2   force =     0.00000418   -0.00001585   -0.00001769
     atom    9 type  3   force =     0.00006585    0.00030868    0.00043768
     atom   10 type  3   force =    -0.00006585    0.00030868   -0.00043768
     atom   11 type  3   force =    -0.00006585   -0.00030868   -0.00043768
     atom   12 type  3   force =     0.00006585   -0.00030868    0.00043768
     atom   13 type  3   force =     0.00016381   -0.00048848   -0.00007273
     atom   14 type  3   force =    -0.00016381   -0.00048848    0.00007273
     atom   15 type  3   force =    -0.00016381    0.00048848    0.00007273
     atom   16 type  3   force =     0.00016381    0.00048848   -0.00007273
     atom   17 type  3   force =     0.00036768    0.00022265   -0.00028675
     atom   18 type  3   force =    -0.00036768    0.00022265    0.00028675
     atom   19 type  3   force =    -0.00036768   -0.00022265    0.00028675
     atom   20 type  3   force =     0.00036768   -0.00022265   -0.00028675
     atom   21 type  3   force =    -0.00041851    0.00007628   -0.00029726
     atom   22 type  3   force =     0.00041851    0.00007628    0.00029726
     atom   23 type  3   force =     0.00041851   -0.00007628    0.00029726
     atom   24 type  3   force =    -0.00041851   -0.00007628   -0.00029726

     Total force =     0.060969     Total SCF correction =     0.002097


     Computing stress (Cartesian axis) and pressure

          total   stress  (Ry/bohr**3)                   (kbar)     P=       12.13
   0.00008469   0.00000000   0.00000253           12.46        0.00        0.37
   0.00000000   0.00008240   0.00000000            0.00       12.12        0.00
   0.00000253   0.00000000   0.00008038            0.37        0.00       11.82

     kinetic stress (kbar)   4578.14      0.00     -9.85
                                0.00   4625.10      0.00
                               -9.85      0.00   4582.90

     local   stress (kbar)  -6140.52     -0.00    -92.10
                               -0.00  -5378.21      0.00
                              -92.10      0.00  -5840.75

     nonloc. stress (kbar)   5723.37      0.00      1.26
                                0.00   5721.66      0.00
                                1.26      0.00   5723.23

     hartree stress (kbar)   1463.60      0.00     24.12
                                0.00   1226.30     -0.00
                               24.12     -0.00   1352.93

     exc-cor stress (kbar)  -1155.77     -0.00      0.25
                               -0.00  -1156.91     -0.00
                                0.25     -0.00  -1156.32

     corecor stress (kbar)    -20.03      0.00     -0.02
                                0.00    -20.03      0.00
                               -0.02      0.00    -19.85

     ewald   stress (kbar)  -4436.33      0.00     76.71
                                0.00  -5005.77     -0.00
                               76.71     -0.00  -4630.32

     hubbard stress (kbar)      0.00      0.00      0.00
                                0.00      0.00      0.00
                                0.00      0.00      0.00

     DFT-D   stress (kbar)      0.00      0.00      0.00
                                0.00      0.00      0.00
                                0.00      0.00      0.00

     XDM     stress (kbar)      0.00      0.00      0.00
                                0.00      0.00      0.00
                                0.00      0.00      0.00

     dft-nl  stress (kbar)      0.00      0.00      0.00
                                0.00      0.00      0.00
                                0.00      0.00      0.00

     TS-vdW  stress (kbar)      0.00      0.00      0.00
                                0.00      0.00      0.00
                                0.00      0.00      0.00

     MDB     stress (kbar)      0.00      0.00      0.00
                                0.00      0.00      0.00
                                0.00      0.00      0.00

     3D-RISM stress (kbar)      0.00      0.00      0.00
                                0.00      0.00      0.00
                                0.00      0.00      0.00


     Writing all to output data dir ./out/LAC.save/ :
     XML data file, charge density, pseudopotentials, collected wavefunctions

     init_run     :    496.42s CPU    499.79s WALL (       1 calls)
     electrons    :   4393.27s CPU   5064.19s WALL (       1 calls)
     forces       :     56.85s CPU     56.99s WALL (       1 calls)
     stress       :    121.46s CPU    122.69s WALL (       1 calls)

     Called by init_run:
     wfcinit      :    493.86s CPU    497.06s WALL (       1 calls)
     wfcinit:atom :      0.42s CPU      0.91s WALL (      39 calls)
     wfcinit:wfcr :    489.91s CPU    492.31s WALL (      39 calls)
     potinit      :      1.09s CPU      1.19s WALL (       1 calls)
     hinit0       :      1.05s CPU      1.09s WALL (       1 calls)

     Called by electrons:
     c_bands      :   3649.32s CPU   4279.68s WALL (       9 calls)
     sum_band     :    738.88s CPU    742.32s WALL (       9 calls)
     v_of_rho     :      4.29s CPU      4.76s WALL (       9 calls)
     v_h          :      0.34s CPU      0.44s WALL (       9 calls)
     v_xc         :      4.79s CPU      5.23s WALL (      11 calls)
     mix_rho      :      0.51s CPU      0.54s WALL (       9 calls)

     Called by c_bands:
     init_us_2    :      4.30s CPU      4.39s WALL (     819 calls)
     cegterg      :   3640.79s CPU   3655.64s WALL (     351 calls)

     Called by sum_band:
     sum_band:wei :      0.00s CPU      0.00s WALL (       9 calls)
     sum_band:loo :    738.13s CPU    741.17s WALL (       9 calls)
     sum_band:buf :      0.88s CPU      1.33s WALL (     351 calls)
     sum_band:ini :      1.75s CPU      1.80s WALL (     351 calls)

     Called by *egterg:
     cdiaghg      :      6.37s CPU      6.41s WALL (    1092 calls)
     cegterg:over :     22.12s CPU     22.20s WALL (     780 calls)
     cegterg:upda :     10.74s CPU     10.82s WALL (     780 calls)
     cegterg:last :     16.54s CPU     16.68s WALL (     702 calls)
     h_psi        :   4040.65s CPU   4057.48s WALL (    1170 calls)
     g_psi        :      2.91s CPU      2.92s WALL (     780 calls)

     Called by h_psi:
     h_psi:calbec :     33.24s CPU     33.50s WALL (    1170 calls)
     vloc_psi     :   3993.84s CPU   4009.70s WALL (    1170 calls)
     add_vuspsi   :     12.00s CPU     12.08s WALL (    1170 calls)

     General routines
     calbec       :    145.73s CPU    146.04s WALL (    1365 calls)
     fft          :      4.73s CPU      5.02s WALL (     131 calls)
     ffts         :      0.88s CPU      0.89s WALL (      18 calls)
     fftw         :   4639.38s CPU   4656.93s WALL (  162106 calls)
     interpolate  :      0.87s CPU      0.89s WALL (       9 calls)

     Parallel routines

     PWSCF        :      1h24m CPU      1h36m WALL


   This run was terminated on:   0:59:40  11Nov2024            

=------------------------------------------------------------------------------=
   JOB DONE.
=------------------------------------------------------------------------------=
