### Running on host: gra740.graham.sharcnet

     Program PWSCF v.7.3.1 starts on 10Nov2024 at 18:56:24 

     This program is part of the open-source Quantum ESPRESSO suite
     for quantum simulation of materials; please cite
         "P. Giannozzi et al., J. Phys.:Condens. Matter 21 395502 (2009);
         "P. Giannozzi et al., J. Phys.:Condens. Matter 29 465901 (2017);
         "P. Giannozzi et al., J. Chem. Phys. 152 154105 (2020);
          URL http://www.quantum-espresso.org", 
     in publications or presentations arising from this work. More details at
     http://www.quantum-espresso.org/quote

     Parallel version (MPI & OpenMP), running on       4 processor cores
     Number of MPI processes:                 4
     Threads/MPI process:                     1

     MPI processes distributed on     1 nodes
     65582 MiB available memory on the printing compute node when the environment starts

     Reading input from LAC_scf_ecutwfc-30.in

     Current dimensions of program PWSCF are:
     Max number of different atomic species (ntypx) = 10
     Max number of k-points (npk) =  40000
     Max angular momentum in pseudopotentials (lmaxx) =  4
     file Li.pbe-tm-gipaw-dc.UPF: wavefunction(s)  2S 2P 3S 3P renormalized
     WARNING: atomic wfc #  3 for atom typeAl has zero norm
     WARNING: atomic wfc #  4 for atom typeAl has zero norm
     Message from routine setup:
     using ibrav=0 with symmetry is DISCOURAGED, use correct ibrav instead

     R & G space division:  proc/nbgrp/npool/nimage =       4
     Subspace diagonalization in iterative solution of the eigenvalue problem:
     a serial algorithm will be used


     Parallelization info
     --------------------
     sticks:   dense  smooth     PW     G-vecs:    dense   smooth      PW
     Min        1940     389    107               247428    22131    3247
     Max        1941     390    108               247431    22135    3253
     Sum        7761    1557    431               989717    88531   13005

     Using Slab Decomposition



     bravais-lattice index     =            0
     lattice parameter (alat)  =      12.2889  a.u.
     unit-cell volume          =    3987.9110 (a.u.)^3
     number of atoms/cell      =           24
     number of atomic types    =            3
     number of electrons       =       128.00
     number of Kohn-Sham states=           64
     kinetic-energy cutoff     =      30.0000  Ry
     charge density cutoff     =     600.0000  Ry
     scf convergence threshold =      1.0E-06
     mixing beta               =       0.4000
     number of iterations used =            8  plain     mixing
     Exchange-correlation=  SLA  PW   PBX  PBC
                           (   1   4   3   4   0   0   0)

     celldm(1)=  12.288889  celldm(2)=   0.000000  celldm(3)=   0.000000
     celldm(4)=   0.000000  celldm(5)=   0.000000  celldm(6)=   0.000000

     crystal axes: (cart. coord. in units of alat)
               a(1) = (  -0.000000  -1.000000  -0.000000 )  
               a(2) = (  -1.075255   0.000000   0.061999 )  
               a(3) = (   0.000000   0.000000  -1.998462 )  

     reciprocal axes: (cart. coord. in units 2 pi/alat)
               b(1) = ( -0.000000 -1.000000 -0.000000 )  
               b(2) = ( -0.930012  0.000000  0.000000 )  
               b(3) = ( -0.028852  0.000000 -0.500385 )  


     PseudoPot. # 1 for Li read from file:
     /home/cgurwell/projects/rrg-ravh011/cgurwell/pseudo/Li.pbe-tm-gipaw-dc.UPF
     MD5 check sum: 258bf1e32d815cbe0990be85d5d6a6e5
     Pseudo is Norm-conserving + core correction, Zval =  1.0
     Generated by new atomic code, or converted to UPF format
     Using radial grid of 1371 points,  1 beta functions with: 
                l(1) =   0

     PseudoPot. # 2 for Al read from file:
     /home/cgurwell/projects/rrg-ravh011/cgurwell/pseudo/Al.pbe-tm-gipaw-dc.UPF
     MD5 check sum: efdf9c81b1c08458edd46fe92d869955
     Pseudo is Norm-conserving, Zval =  3.0
     Generated by new atomic code, or converted to UPF format
     Using radial grid of 1519 points,  2 beta functions with: 
                l(1) =   0
                l(2) =   1

     PseudoPot. # 3 for Cl read from file:
     /home/cgurwell/projects/rrg-ravh011/cgurwell/pseudo/Cl.pbe-tm-gipaw.UPF
     MD5 check sum: 6263502ce953d769893a136fffc16e2a
     Pseudo is Norm-conserving, Zval =  7.0
     Generated by new atomic code, or converted to UPF format
     Using radial grid of 1157 points,  2 beta functions with: 
                l(1) =   0
                l(2) =   1

     atomic species   valence    mass     pseudopotential
     Li                1.00     6.94100     Li( 1.00)
     Al                3.00    26.98154     Al( 1.00)
     Cl                7.00    35.45300     Cl( 1.00)

      4 Sym. Ops., with inversion, found ( 2 have fractional translation)


                                    s                        frac. trans.

      isym =  1     identity                                     

 cryst.   s( 1) = (     1          0          0      )
                  (     0          1          0      )
                  (     0          0          1      )

 cart.    s( 1) = (  1.0000000  0.0000000  0.0000000 )
                  (  0.0000000  1.0000000  0.0000000 )
                  (  0.0000000  0.0000000  1.0000000 )


      isym =  2     180 deg rotation - cart. axis [0,1,0]        

 cryst.   s( 2) = (     1          0          0      )    f =( -0.5000000 )
                  (     0         -1          0      )       (  0.0000000 )
                  (     0          0         -1      )       (  0.5000000 )

 cart.    s( 2) = ( -1.0000000  0.0000000  0.0000000 )    f =(  0.0000000 )
                  (  0.0000000  1.0000000  0.0000000 )       (  0.5000000 )
                  ( -0.0000000  0.0000000 -1.0000000 )       ( -0.9992311 )


      isym =  3     inversion                                    

 cryst.   s( 3) = (    -1          0          0      )
                  (     0         -1          0      )
                  (     0          0         -1      )

 cart.    s( 3) = ( -1.0000000  0.0000000  0.0000000 )
                  (  0.0000000 -1.0000000  0.0000000 )
                  ( -0.0000000  0.0000000 -1.0000000 )


      isym =  4     inv. 180 deg rotation - cart. axis [0,1,0]   

 cryst.   s( 4) = (    -1          0          0      )    f =(  0.5000000 )
                  (     0          1          0      )       (  0.0000000 )
                  (     0          0          1      )       ( -0.5000000 )

 cart.    s( 4) = (  1.0000000  0.0000000  0.0000000 )    f =( -0.0000000 )
                  (  0.0000000 -1.0000000  0.0000000 )       ( -0.5000000 )
                  (  0.0000000  0.0000000  1.0000000 )       (  0.9992311 )


   Cartesian axes

     site n.     atom                  positions (alat units)
         1        Li     tau(   1) = (  -0.9056877  -0.4850000  -0.2183702  )
         2        Li     tau(   2) = (  -0.1695678  -0.9850000  -0.7188621  )
         3        Li     tau(   3) = (  -0.1695678  -0.5150000  -1.7180932  )
         4        Li     tau(   4) = (  -0.9056877  -0.0150000  -1.2176013  )
         5        Al     tau(   5) = (  -0.3162326  -0.8217000  -1.1827820  )
         6        Al     tau(   6) = (  -0.7590228  -0.3217000  -1.7529125  )
         7        Al     tau(   7) = (  -0.7590228  -0.1783000  -0.7536814  )
         8        Al     tau(   8) = (  -0.3162326  -0.6783000  -0.1835509  )
         9        Cl     tau(   9) = (  -0.3292432  -0.6832000  -0.8869788  )
        10        Cl     tau(  10) = (  -0.7460122  -0.1832000  -0.0502534  )
        11        Cl     tau(  11) = (  -0.7460122  -0.3168000  -1.0494846  )
        12        Cl     tau(  12) = (  -0.3292432  -0.8168000  -1.8862100  )
        13        Cl     tau(  13) = (  -0.2058039  -0.1281000  -1.1300747  )
        14        Cl     tau(  14) = (  -0.8694515  -0.6281000  -1.8056198  )
        15        Cl     tau(  15) = (  -0.8694515  -0.8719000  -0.8063887  )
        16        Cl     tau(  16) = (  -0.2058039  -0.3719000  -0.1308436  )
        17        Cl     tau(  17) = (  -0.0801065  -0.6812000  -1.3666060  )
        18        Cl     tau(  18) = (  -0.9951489  -0.1812000  -1.5690886  )
        19        Cl     tau(  19) = (  -0.9951489  -0.3188000  -0.5698574  )
        20        Cl     tau(  20) = (  -0.0801065  -0.8188000  -0.3673748  )
        21        Cl     tau(  21) = (  -0.6024656  -0.8140000  -1.3383055  )
        22        Cl     tau(  22) = (  -0.4727898  -0.3140000  -1.5973890  )
        23        Cl     tau(  23) = (  -0.4727898  -0.1860000  -0.5981579  )
        24        Cl     tau(  24) = (  -0.6024656  -0.6860000  -0.3390744  )

   Crystallographic axes

     site n.     atom                  positions (cryst. coord.)
         1        Li     tau(   1) = (  0.4850000  0.8423000  0.1354000  )
         2        Li     tau(   2) = (  0.9850000  0.1577000  0.3646000  )
         3        Li     tau(   3) = (  0.5150000  0.1577000  0.8646000  )
         4        Li     tau(   4) = (  0.0150000  0.8423000  0.6354000  )
         5        Al     tau(   5) = (  0.8217000  0.2941000  0.6009700  )
         6        Al     tau(   6) = (  0.3217000  0.7059000  0.8990300  )
         7        Al     tau(   7) = (  0.1783000  0.7059000  0.3990300  )
         8        Al     tau(   8) = (  0.6783000  0.2941000  0.1009700  )
         9        Cl     tau(   9) = (  0.6832000  0.3062000  0.4533300  )
        10        Cl     tau(  10) = (  0.1832000  0.6938000  0.0466700  )
        11        Cl     tau(  11) = (  0.3168000  0.6938000  0.5466700  )
        12        Cl     tau(  12) = (  0.8168000  0.3062000  0.9533300  )
        13        Cl     tau(  13) = (  0.1281000  0.1914000  0.5714100  )
        14        Cl     tau(  14) = (  0.6281000  0.8086000  0.9285900  )
        15        Cl     tau(  15) = (  0.8719000  0.8086000  0.4285900  )
        16        Cl     tau(  16) = (  0.3719000  0.1914000  0.0714100  )
        17        Cl     tau(  17) = (  0.6812000  0.0745000  0.6861400  )
        18        Cl     tau(  18) = (  0.1812000  0.9255000  0.8138600  )
        19        Cl     tau(  19) = (  0.3188000  0.9255000  0.3138600  )
        20        Cl     tau(  20) = (  0.8188000  0.0745000  0.1861400  )
        21        Cl     tau(  21) = (  0.8140000  0.5603000  0.6870500  )
        22        Cl     tau(  22) = (  0.3140000  0.4397000  0.8129500  )
        23        Cl     tau(  23) = (  0.1860000  0.4397000  0.3129500  )
        24        Cl     tau(  24) = (  0.6860000  0.5603000  0.1870500  )

     number of k points=    39
                       cart. coord. in units 2pi/alat
        k(    1) = (  -0.0000000   0.0000000   0.0000000), wk =   0.0160000
        k(    2) = (  -0.0057704   0.0000000  -0.1000769), wk =   0.0320000
        k(    3) = (  -0.0115408   0.0000000  -0.2001539), wk =   0.0320000
        k(    4) = (  -0.1860023   0.0000000   0.0000000), wk =   0.0320000
        k(    5) = (  -0.1917727   0.0000000  -0.1000769), wk =   0.0320000
        k(    6) = (  -0.1975431   0.0000000  -0.2001539), wk =   0.0320000
        k(    7) = (  -0.1744615   0.0000000   0.2001539), wk =   0.0320000
        k(    8) = (  -0.1802319   0.0000000   0.1000769), wk =   0.0320000
        k(    9) = (  -0.3720046   0.0000000   0.0000000), wk =   0.0320000
        k(   10) = (  -0.3777750   0.0000000  -0.1000769), wk =   0.0320000
        k(   11) = (  -0.3835454   0.0000000  -0.2001539), wk =   0.0320000
        k(   12) = (  -0.3604638   0.0000000   0.2001539), wk =   0.0320000
        k(   13) = (  -0.3662342   0.0000000   0.1000769), wk =   0.0320000
        k(   14) = (  -0.0000000  -0.2000000   0.0000000), wk =   0.0320000
        k(   15) = (  -0.0057704  -0.2000000  -0.1000769), wk =   0.0640000
        k(   16) = (  -0.0115408  -0.2000000  -0.2001539), wk =   0.0640000
        k(   17) = (  -0.1860023  -0.2000000   0.0000000), wk =   0.0640000
        k(   18) = (  -0.1917727  -0.2000000  -0.1000769), wk =   0.0640000
        k(   19) = (  -0.1975431  -0.2000000  -0.2001539), wk =   0.0640000
        k(   20) = (  -0.1744615  -0.2000000   0.2001539), wk =   0.0640000
        k(   21) = (  -0.1802319  -0.2000000   0.1000769), wk =   0.0640000
        k(   22) = (  -0.3720046  -0.2000000   0.0000000), wk =   0.0640000
        k(   23) = (  -0.3777750  -0.2000000  -0.1000769), wk =   0.0640000
        k(   24) = (  -0.3835454  -0.2000000  -0.2001539), wk =   0.0640000
        k(   25) = (  -0.3604638  -0.2000000   0.2001539), wk =   0.0640000
        k(   26) = (  -0.3662342  -0.2000000   0.1000769), wk =   0.0640000
        k(   27) = (  -0.0000000  -0.4000000   0.0000000), wk =   0.0320000
        k(   28) = (  -0.0057704  -0.4000000  -0.1000769), wk =   0.0640000
        k(   29) = (  -0.0115408  -0.4000000  -0.2001539), wk =   0.0640000
        k(   30) = (  -0.1860023  -0.4000000   0.0000000), wk =   0.0640000
        k(   31) = (  -0.1917727  -0.4000000  -0.1000769), wk =   0.0640000
        k(   32) = (  -0.1975431  -0.4000000  -0.2001539), wk =   0.0640000
        k(   33) = (  -0.1744615  -0.4000000   0.2001539), wk =   0.0640000
        k(   34) = (  -0.1802319  -0.4000000   0.1000769), wk =   0.0640000
        k(   35) = (  -0.3720046  -0.4000000   0.0000000), wk =   0.0640000
        k(   36) = (  -0.3777750  -0.4000000  -0.1000769), wk =   0.0640000
        k(   37) = (  -0.3835454  -0.4000000  -0.2001539), wk =   0.0640000
        k(   38) = (  -0.3604638  -0.4000000   0.2001539), wk =   0.0640000
        k(   39) = (  -0.3662342  -0.4000000   0.1000769), wk =   0.0640000

                       cryst. coord.
        k(    1) = (   0.0000000   0.0000000   0.0000000), wk =   0.0160000
        k(    2) = (   0.0000000  -0.0000000   0.2000000), wk =   0.0320000
        k(    3) = (   0.0000000  -0.0000000   0.4000000), wk =   0.0320000
        k(    4) = (   0.0000000   0.2000000   0.0000000), wk =   0.0320000
        k(    5) = (   0.0000000   0.2000000   0.2000000), wk =   0.0320000
        k(    6) = (   0.0000000   0.2000000   0.4000000), wk =   0.0320000
        k(    7) = (   0.0000000   0.2000000  -0.4000000), wk =   0.0320000
        k(    8) = (   0.0000000   0.2000000  -0.2000000), wk =   0.0320000
        k(    9) = (   0.0000000   0.4000000   0.0000000), wk =   0.0320000
        k(   10) = (   0.0000000   0.4000000   0.2000000), wk =   0.0320000
        k(   11) = (   0.0000000   0.4000000   0.4000000), wk =   0.0320000
        k(   12) = (   0.0000000   0.4000000  -0.4000000), wk =   0.0320000
        k(   13) = (   0.0000000   0.4000000  -0.2000000), wk =   0.0320000
        k(   14) = (   0.2000000   0.0000000  -0.0000000), wk =   0.0320000
        k(   15) = (   0.2000000  -0.0000000   0.2000000), wk =   0.0640000
        k(   16) = (   0.2000000  -0.0000000   0.4000000), wk =   0.0640000
        k(   17) = (   0.2000000   0.2000000  -0.0000000), wk =   0.0640000
        k(   18) = (   0.2000000   0.2000000   0.2000000), wk =   0.0640000
        k(   19) = (   0.2000000   0.2000000   0.4000000), wk =   0.0640000
        k(   20) = (   0.2000000   0.2000000  -0.4000000), wk =   0.0640000
        k(   21) = (   0.2000000   0.2000000  -0.2000000), wk =   0.0640000
        k(   22) = (   0.2000000   0.4000000  -0.0000000), wk =   0.0640000
        k(   23) = (   0.2000000   0.4000000   0.2000000), wk =   0.0640000
        k(   24) = (   0.2000000   0.4000000   0.4000000), wk =   0.0640000
        k(   25) = (   0.2000000   0.4000000  -0.4000000), wk =   0.0640000
        k(   26) = (   0.2000000   0.4000000  -0.2000000), wk =   0.0640000
        k(   27) = (   0.4000000   0.0000000  -0.0000000), wk =   0.0320000
        k(   28) = (   0.4000000  -0.0000000   0.2000000), wk =   0.0640000
        k(   29) = (   0.4000000  -0.0000000   0.4000000), wk =   0.0640000
        k(   30) = (   0.4000000   0.2000000  -0.0000000), wk =   0.0640000
        k(   31) = (   0.4000000   0.2000000   0.2000000), wk =   0.0640000
        k(   32) = (   0.4000000   0.2000000   0.4000000), wk =   0.0640000
        k(   33) = (   0.4000000   0.2000000  -0.4000000), wk =   0.0640000
        k(   34) = (   0.4000000   0.2000000  -0.2000000), wk =   0.0640000
        k(   35) = (   0.4000000   0.4000000  -0.0000000), wk =   0.0640000
        k(   36) = (   0.4000000   0.4000000   0.2000000), wk =   0.0640000
        k(   37) = (   0.4000000   0.4000000   0.4000000), wk =   0.0640000
        k(   38) = (   0.4000000   0.4000000  -0.4000000), wk =   0.0640000
        k(   39) = (   0.4000000   0.4000000  -0.2000000), wk =   0.0640000

     Dense  grid:   989717 G-vectors     FFT dimensions: (  96, 108, 192)

     Smooth grid:    88531 G-vectors     FFT dimensions: (  48,  48,  90)

     Dynamical RAM for                 wfc:       2.70 MB

     Dynamical RAM for     wfc (w. buffer):     108.05 MB

     Dynamical RAM for           str. fact:      11.33 MB

     Dynamical RAM for           local pot:       0.00 MB

     Dynamical RAM for          nlocal pot:       3.55 MB

     Dynamical RAM for                qrad:       0.51 MB

     Dynamical RAM for          rho,v,vnew:      22.72 MB

     Dynamical RAM for               rhoin:       7.57 MB

     Dynamical RAM for            rho*nmix:      60.41 MB

     Dynamical RAM for           G-vectors:      14.33 MB

     Dynamical RAM for          h,s,v(r/c):       0.75 MB

     Dynamical RAM for          <psi|beta>:       0.08 MB

     Dynamical RAM for                 psi:       5.40 MB

     Dynamical RAM for                hpsi:       5.40 MB

     Dynamical RAM for      wfcinit/wfcrot:      18.93 MB

     Estimated static dynamical RAM per process >     202.13 MB

     Estimated max dynamical RAM per process >     281.46 MB

     Estimated total dynamical RAM >       1.10 GB

     Initial potential from superposition of free atoms

     starting charge     117.3963, renormalised to     128.0000
     Starting wfcs are  212 randomized atomic wfcs

     total cpu time spent up to now is      464.1 secs

     Self-consistent Calculation

     iteration #  1     ecut=    30.00 Ry     beta= 0.40
     Davidson diagonalization with overlap

---- Real-time Memory Report at c_bands before calling an iterative solver
           376 MiB given to the printing process from OS
             0 MiB allocation reported by mallinfo(arena+hblkhd)
         64581 MiB available memory on the node where the printing process lives
------------------
     ethr =  1.00E-02,  avg # of iterations =  2.0

     Threshold (ethr) on eigenvalues was too large:
     Diagonalizing with lowered threshold

     Davidson diagonalization with overlap

---- Real-time Memory Report at c_bands before calling an iterative solver
           381 MiB given to the printing process from OS
             0 MiB allocation reported by mallinfo(arena+hblkhd)
         63574 MiB available memory on the node where the printing process lives
------------------
     ethr =  2.40E-04,  avg # of iterations =  2.2

     total cpu time spent up to now is     1315.9 secs

     total energy              =    -501.43098202 Ry
     estimated scf accuracy    <       0.34450770 Ry

     iteration #  2     ecut=    30.00 Ry     beta= 0.40
     Davidson diagonalization with overlap

---- Real-time Memory Report at c_bands before calling an iterative solver
           443 MiB given to the printing process from OS
             0 MiB allocation reported by mallinfo(arena+hblkhd)
         63315 MiB available memory on the node where the printing process lives
------------------
     ethr =  2.69E-04,  avg # of iterations =  1.0

     total cpu time spent up to now is     1675.7 secs

     total energy              =    -501.44581032 Ry
     estimated scf accuracy    <       0.08913842 Ry

     iteration #  3     ecut=    30.00 Ry     beta= 0.40
     Davidson diagonalization with overlap

---- Real-time Memory Report at c_bands before calling an iterative solver
           445 MiB given to the printing process from OS
             0 MiB allocation reported by mallinfo(arena+hblkhd)
         63303 MiB available memory on the node where the printing process lives
------------------
     ethr =  6.96E-05,  avg # of iterations =  2.0

     total cpu time spent up to now is     2141.0 secs

     total energy              =    -501.45541434 Ry
     estimated scf accuracy    <       0.01167012 Ry

     iteration #  4     ecut=    30.00 Ry     beta= 0.40
     Davidson diagonalization with overlap

---- Real-time Memory Report at c_bands before calling an iterative solver
           445 MiB given to the printing process from OS
             0 MiB allocation reported by mallinfo(arena+hblkhd)
         63429 MiB available memory on the node where the printing process lives
------------------
     ethr =  9.12E-06,  avg # of iterations =  2.0

     total cpu time spent up to now is     2614.0 secs

     total energy              =    -501.45830938 Ry
     estimated scf accuracy    <       0.00293189 Ry

     iteration #  5     ecut=    30.00 Ry     beta= 0.40
     Davidson diagonalization with overlap

---- Real-time Memory Report at c_bands before calling an iterative solver
           446 MiB given to the printing process from OS
             0 MiB allocation reported by mallinfo(arena+hblkhd)
         63668 MiB available memory on the node where the printing process lives
------------------
     ethr =  2.29E-06,  avg # of iterations =  2.0

     total cpu time spent up to now is     2981.2 secs

     total energy              =    -501.45821218 Ry
     estimated scf accuracy    <       0.00055012 Ry

     iteration #  6     ecut=    30.00 Ry     beta= 0.40
     Davidson diagonalization with overlap

---- Real-time Memory Report at c_bands before calling an iterative solver
           447 MiB given to the printing process from OS
             0 MiB allocation reported by mallinfo(arena+hblkhd)
         63541 MiB available memory on the node where the printing process lives
------------------
     ethr =  4.30E-07,  avg # of iterations =  3.0

     total cpu time spent up to now is     3466.0 secs

     total energy              =    -501.45842068 Ry
     estimated scf accuracy    <       0.00047334 Ry

     iteration #  7     ecut=    30.00 Ry     beta= 0.40
     Davidson diagonalization with overlap

---- Real-time Memory Report at c_bands before calling an iterative solver
           448 MiB given to the printing process from OS
             0 MiB allocation reported by mallinfo(arena+hblkhd)
         63435 MiB available memory on the node where the printing process lives
------------------
     ethr =  3.70E-07,  avg # of iterations =  2.0

     total cpu time spent up to now is     3927.2 secs

     End of self-consistent calculation

          k =-0.0000 0.0000 0.0000 ( 11059 PWs)   bands (ev):

   -13.6497 -13.4889 -13.4682 -13.3318 -12.9464 -12.9441 -12.8973 -12.8606
   -12.8575 -12.8532 -12.8254 -12.8233 -12.7386 -12.7273 -12.6800 -12.6688
    -4.1183  -4.0703  -4.0559  -4.0102  -2.7953  -2.7401  -2.4984  -2.4401
    -2.3752  -2.3664  -2.3189  -2.1871  -2.1382  -2.1293  -2.0962  -1.9265
    -1.6476  -1.5349  -1.5274  -1.4586  -1.3461  -1.3177  -1.2529  -1.1966
    -1.1656  -1.0873  -0.9525  -0.9257  -0.8750  -0.7732  -0.6832  -0.6695
    -0.5307  -0.5298  -0.5235  -0.3715  -0.3548  -0.3367  -0.3320  -0.2564
    -0.1413  -0.1241  -0.0566  -0.0282  -0.0195   0.0402   0.0435   0.0546

     occupation numbers 
     1.0000   1.0000   1.0000   1.0000   1.0000   1.0000   1.0000   1.0000
     1.0000   1.0000   1.0000   1.0000   1.0000   1.0000   1.0000   1.0000
     1.0000   1.0000   1.0000   1.0000   1.0000   1.0000   1.0000   1.0000
     1.0000   1.0000   1.0000   1.0000   1.0000   1.0000   1.0000   1.0000
     1.0000   1.0000   1.0000   1.0000   1.0000   1.0000   1.0000   1.0000
     1.0000   1.0000   1.0000   1.0000   1.0000   1.0000   1.0000   1.0000
     1.0000   1.0000   1.0000   1.0000   1.0000   1.0000   1.0000   1.0000
     1.0000   1.0000   1.0000   1.0000   1.0000   1.0000   1.0000   1.0000

          k =-0.0058 0.0000-0.1001 ( 11097 PWs)   bands (ev):

   -13.6418 -13.5323 -13.4271 -13.3373 -12.9478 -12.9465 -12.8944 -12.8661
   -12.8586 -12.8496 -12.8254 -12.8239 -12.7378 -12.7293 -12.6788 -12.6697
    -4.1164  -4.0834  -4.0426  -4.0114  -2.7899  -2.7457  -2.4920  -2.4271
    -2.3717  -2.3712  -2.3399  -2.1973  -2.1817  -2.0827  -2.0703  -1.9455
    -1.6708  -1.5888  -1.5033  -1.4617  -1.3423  -1.3354  -1.2361  -1.1702
    -1.1672  -1.0171  -0.9622  -0.9020  -0.8779  -0.7991  -0.6879  -0.6478
    -0.5955  -0.5410  -0.4403  -0.3958  -0.3722  -0.3357  -0.2967  -0.2607
    -0.1461  -0.1364  -0.0640  -0.0337  -0.0212   0.0235   0.0455   0.0506

     occupation numbers 
     1.0000   1.0000   1.0000   1.0000   1.0000   1.0000   1.0000   1.0000
     1.0000   1.0000   1.0000   1.0000   1.0000   1.0000   1.0000   1.0000
     1.0000   1.0000   1.0000   1.0000   1.0000   1.0000   1.0000   1.0000
     1.0000   1.0000   1.0000   1.0000   1.0000   1.0000   1.0000   1.0000
     1.0000   1.0000   1.0000   1.0000   1.0000   1.0000   1.0000   1.0000
     1.0000   1.0000   1.0000   1.0000   1.0000   1.0000   1.0000   1.0000
     1.0000   1.0000   1.0000   1.0000   1.0000   1.0000   1.0000   1.0000
     1.0000   1.0000   1.0000   1.0000   1.0000   1.0000   1.0000   1.0000

          k =-0.0115 0.0000-0.2002 ( 11104 PWs)   bands (ev):

   -13.6173 -13.5798 -13.3849 -13.3543 -12.9497 -12.9494 -12.8870 -12.8769
   -12.8536 -12.8494 -12.8255 -12.8248 -12.7353 -12.7324 -12.6752 -12.6719
    -4.1100  -4.0987  -4.0267  -4.0160  -2.7760  -2.7593  -2.4686  -2.4269
    -2.3788  -2.3647  -2.3394  -2.2837  -2.1399  -2.0842  -2.0148  -1.9754
    -1.6971  -1.6703  -1.4642  -1.4552  -1.3558  -1.3493  -1.2123  -1.1868
    -1.1038  -1.0328  -0.8970  -0.8467  -0.8358  -0.8119  -0.7597  -0.6849
    -0.5618  -0.5097  -0.4496  -0.4421  -0.3467  -0.3141  -0.2927  -0.2693
    -0.1586  -0.1442  -0.0647  -0.0563  -0.0169   0.0005   0.0422   0.0434

     occupation numbers 
     1.0000   1.0000   1.0000   1.0000   1.0000   1.0000   1.0000   1.0000
     1.0000   1.0000   1.0000   1.0000   1.0000   1.0000   1.0000   1.0000
     1.0000   1.0000   1.0000   1.0000   1.0000   1.0000   1.0000   1.0000
     1.0000   1.0000   1.0000   1.0000   1.0000   1.0000   1.0000   1.0000
     1.0000   1.0000   1.0000   1.0000   1.0000   1.0000   1.0000   1.0000
     1.0000   1.0000   1.0000   1.0000   1.0000   1.0000   1.0000   1.0000
     1.0000   1.0000   1.0000   1.0000   1.0000   1.0000   1.0000   1.0000
     1.0000   1.0000   1.0000   1.0000   1.0000   1.0000   1.0000   1.0000

          k =-0.1860 0.0000 0.0000 ( 11063 PWs)   bands (ev):

   -13.6189 -13.4749 -13.4550 -13.3557 -12.9628 -12.9594 -12.9151 -12.8941
   -12.8892 -12.8426 -12.8039 -12.7872 -12.7319 -12.7238 -12.6841 -12.6756
    -4.0817  -4.0392  -4.0077  -3.9833  -2.7677  -2.7066  -2.5310  -2.5002
    -2.3502  -2.2833  -2.2491  -2.2021  -2.1658  -2.1159  -2.0631  -1.9763
    -1.7131  -1.5354  -1.4743  -1.4573  -1.4109  -1.3347  -1.2872  -1.1809
    -1.1134  -1.0871  -0.9843  -0.9004  -0.8061  -0.8039  -0.7031  -0.6506
    -0.6330  -0.5123  -0.4984  -0.4249  -0.3722  -0.3403  -0.3285  -0.3066
    -0.1937  -0.1574  -0.1120  -0.0920  -0.0673  -0.0070   0.0694   0.0694

     occupation numbers 
     1.0000   1.0000   1.0000   1.0000   1.0000   1.0000   1.0000   1.0000
     1.0000   1.0000   1.0000   1.0000   1.0000   1.0000   1.0000   1.0000
     1.0000   1.0000   1.0000   1.0000   1.0000   1.0000   1.0000   1.0000
     1.0000   1.0000   1.0000   1.0000   1.0000   1.0000   1.0000   1.0000
     1.0000   1.0000   1.0000   1.0000   1.0000   1.0000   1.0000   1.0000
     1.0000   1.0000   1.0000   1.0000   1.0000   1.0000   1.0000   1.0000
     1.0000   1.0000   1.0000   1.0000   1.0000   1.0000   1.0000   1.0000
     1.0000   1.0000   1.0000   1.0000   1.0000   1.0000   1.0000   1.0000

          k =-0.1918 0.0000-0.1001 ( 11066 PWs)   bands (ev):

   -13.6095 -13.5162 -13.4187 -13.3588 -12.9678 -12.9455 -12.9179 -12.9021
   -12.8952 -12.8378 -12.8042 -12.7849 -12.7307 -12.7270 -12.6799 -12.6783
    -4.0858  -4.0261  -4.0202  -3.9785  -2.7664  -2.7099  -2.5416  -2.4694
    -2.3707  -2.2759  -2.2676  -2.1737  -2.1505  -2.1198  -2.0742  -2.0220
    -1.7181  -1.5195  -1.4738  -1.4527  -1.3666  -1.3604  -1.3031  -1.2082
    -1.0976  -1.0466  -0.9390  -0.8593  -0.8277  -0.8024  -0.7252  -0.7240
    -0.6738  -0.5140  -0.4622  -0.3816  -0.3586  -0.3573  -0.3324  -0.3318
    -0.1870  -0.1589  -0.1221  -0.0857  -0.0553  -0.0099   0.0654   0.0681

     occupation numbers 
     1.0000   1.0000   1.0000   1.0000   1.0000   1.0000   1.0000   1.0000
     1.0000   1.0000   1.0000   1.0000   1.0000   1.0000   1.0000   1.0000
     1.0000   1.0000   1.0000   1.0000   1.0000   1.0000   1.0000   1.0000
     1.0000   1.0000   1.0000   1.0000   1.0000   1.0000   1.0000   1.0000
     1.0000   1.0000   1.0000   1.0000   1.0000   1.0000   1.0000   1.0000
     1.0000   1.0000   1.0000   1.0000   1.0000   1.0000   1.0000   1.0000
     1.0000   1.0000   1.0000   1.0000   1.0000   1.0000   1.0000   1.0000
     1.0000   1.0000   1.0000   1.0000   1.0000   1.0000   1.0000   1.0000

          k =-0.1975 0.0000-0.2002 ( 11083 PWs)   bands (ev):

   -13.5863 -13.5580 -13.3873 -13.3702 -12.9762 -12.9394 -12.9094 -12.9022
   -12.8979 -12.8444 -12.8040 -12.7885 -12.7284 -12.7260 -12.6846 -12.6741
    -4.0834  -4.0442  -4.0049  -3.9768  -2.7561  -2.7246  -2.5307  -2.4255
    -2.3822  -2.2936  -2.2801  -2.2027  -2.1378  -2.1068  -2.0788  -2.0450
    -1.7155  -1.5947  -1.5053  -1.4592  -1.3804  -1.2916  -1.2559  -1.1961
    -1.0882  -0.9659  -0.9236  -0.8537  -0.8309  -0.8013  -0.7691  -0.6953
    -0.6826  -0.5552  -0.4833  -0.3791  -0.3782  -0.3435  -0.3263  -0.2944
    -0.2054  -0.1912  -0.1062  -0.0817  -0.0579  -0.0298   0.0613   0.0725

     occupation numbers 
     1.0000   1.0000   1.0000   1.0000   1.0000   1.0000   1.0000   1.0000
     1.0000   1.0000   1.0000   1.0000   1.0000   1.0000   1.0000   1.0000
     1.0000   1.0000   1.0000   1.0000   1.0000   1.0000   1.0000   1.0000
     1.0000   1.0000   1.0000   1.0000   1.0000   1.0000   1.0000   1.0000
     1.0000   1.0000   1.0000   1.0000   1.0000   1.0000   1.0000   1.0000
     1.0000   1.0000   1.0000   1.0000   1.0000   1.0000   1.0000   1.0000
     1.0000   1.0000   1.0000   1.0000   1.0000   1.0000   1.0000   1.0000
     1.0000   1.0000   1.0000   1.0000   1.0000   1.0000   1.0000   1.0000

          k =-0.1745 0.0000 0.2002 ( 11081 PWs)   bands (ev):

   -13.5914 -13.5506 -13.3922 -13.3677 -12.9805 -12.9449 -12.9069 -12.8974
   -12.8789 -12.8601 -12.7999 -12.7955 -12.7289 -12.7212 -12.6883 -12.6720
    -4.0737  -4.0600  -3.9947  -3.9808  -2.7433  -2.7383  -2.5169  -2.4459
    -2.3323  -2.3010  -2.2930  -2.2323  -2.1847  -2.0814  -2.0518  -2.0260
    -1.6949  -1.6580  -1.5285  -1.4619  -1.3990  -1.2661  -1.2032  -1.1646
    -1.0986  -1.0121  -0.9300  -0.8725  -0.8609  -0.7947  -0.7113  -0.6452
    -0.5934  -0.5857  -0.5469  -0.4399  -0.3606  -0.3431  -0.2986  -0.2973
    -0.2119  -0.1816  -0.1092  -0.0883  -0.0644  -0.0443   0.0579   0.0824

     occupation numbers 
     1.0000   1.0000   1.0000   1.0000   1.0000   1.0000   1.0000   1.0000
     1.0000   1.0000   1.0000   1.0000   1.0000   1.0000   1.0000   1.0000
     1.0000   1.0000   1.0000   1.0000   1.0000   1.0000   1.0000   1.0000
     1.0000   1.0000   1.0000   1.0000   1.0000   1.0000   1.0000   1.0000
     1.0000   1.0000   1.0000   1.0000   1.0000   1.0000   1.0000   1.0000
     1.0000   1.0000   1.0000   1.0000   1.0000   1.0000   1.0000   1.0000
     1.0000   1.0000   1.0000   1.0000   1.0000   1.0000   1.0000   1.0000
     1.0000   1.0000   1.0000   1.0000   1.0000   1.0000   1.0000   1.0000

          k =-0.1802 0.0000 0.1001 ( 11076 PWs)   bands (ev):

   -13.6125 -13.5072 -13.4256 -13.3582 -12.9762 -12.9524 -12.9107 -12.8896
   -12.8786 -12.8577 -12.8016 -12.7934 -12.7301 -12.7209 -12.6883 -12.6728
    -4.0726  -4.0582  -3.9917  -3.9886  -2.7593  -2.7184  -2.5121  -2.4952
    -2.3088  -2.2941  -2.2568  -2.2467  -2.2113  -2.0823  -2.0467  -1.9826
    -1.6962  -1.6316  -1.5185  -1.4610  -1.4106  -1.2674  -1.2247  -1.1649
    -1.0984  -1.0929  -0.9584  -0.9317  -0.8238  -0.7618  -0.7027  -0.6492
    -0.5923  -0.5260  -0.4981  -0.4970  -0.3588  -0.3244  -0.3201  -0.2986
    -0.2363  -0.1475  -0.1325  -0.0700  -0.0561  -0.0447   0.0626   0.0799

     occupation numbers 
     1.0000   1.0000   1.0000   1.0000   1.0000   1.0000   1.0000   1.0000
     1.0000   1.0000   1.0000   1.0000   1.0000   1.0000   1.0000   1.0000
     1.0000   1.0000   1.0000   1.0000   1.0000   1.0000   1.0000   1.0000
     1.0000   1.0000   1.0000   1.0000   1.0000   1.0000   1.0000   1.0000
     1.0000   1.0000   1.0000   1.0000   1.0000   1.0000   1.0000   1.0000
     1.0000   1.0000   1.0000   1.0000   1.0000   1.0000   1.0000   1.0000
     1.0000   1.0000   1.0000   1.0000   1.0000   1.0000   1.0000   1.0000
     1.0000   1.0000   1.0000   1.0000   1.0000   1.0000   1.0000   1.0000

          k =-0.3720 0.0000 0.0000 ( 11087 PWs)   bands (ev):

   -13.5390 -13.4489 -13.4335 -13.4299 -13.0156 -12.9644 -12.9251 -12.9128
   -12.9100 -12.8559 -12.7800 -12.7655 -12.7183 -12.7149 -12.6930 -12.6904
    -4.0111  -3.9790  -3.9465  -3.9374  -2.6887  -2.6488  -2.5627  -2.4758
    -2.3683  -2.3334  -2.2367  -2.1416  -2.1281  -2.0581  -2.0558  -1.9883
    -1.7568  -1.7443  -1.5560  -1.4935  -1.3228  -1.2649  -1.1690  -1.1475
    -1.1161  -1.0578  -1.0211  -0.9424  -0.8924  -0.8305  -0.6792  -0.6274
    -0.6175  -0.5543  -0.5043  -0.4648  -0.4551  -0.4169  -0.3723  -0.3018
    -0.2713  -0.2464  -0.1922  -0.1246  -0.0524  -0.0356   0.0215   0.0412

     occupation numbers 
     1.0000   1.0000   1.0000   1.0000   1.0000   1.0000   1.0000   1.0000
     1.0000   1.0000   1.0000   1.0000   1.0000   1.0000   1.0000   1.0000
     1.0000   1.0000   1.0000   1.0000   1.0000   1.0000   1.0000   1.0000
     1.0000   1.0000   1.0000   1.0000   1.0000   1.0000   1.0000   1.0000
     1.0000   1.0000   1.0000   1.0000   1.0000   1.0000   1.0000   1.0000
     1.0000   1.0000   1.0000   1.0000   1.0000   1.0000   1.0000   1.0000
     1.0000   1.0000   1.0000   1.0000   1.0000   1.0000   1.0000   1.0000
     1.0000   1.0000   1.0000   1.0000   1.0000   1.0000   1.0000   1.0000

          k =-0.3778 0.0000-0.1001 ( 11077 PWs)   bands (ev):

   -13.5309 -13.4712 -13.4292 -13.4210 -13.0009 -12.9754 -12.9255 -12.9138
   -12.9091 -12.8571 -12.7822 -12.7660 -12.7188 -12.7106 -12.6972 -12.6864
    -4.0153  -3.9718  -3.9479  -3.9389  -2.6864  -2.6545  -2.5365  -2.4908
    -2.3738  -2.3127  -2.2580  -2.1275  -2.1175  -2.0856  -2.0493  -2.0192
    -1.7830  -1.7205  -1.5476  -1.4407  -1.3177  -1.3120  -1.1795  -1.1735
    -1.0761  -1.0386  -0.9855  -0.9454  -0.8795  -0.7982  -0.7403  -0.6768
    -0.6683  -0.5395  -0.4864  -0.4701  -0.4431  -0.4203  -0.3327  -0.3061
    -0.3008  -0.2181  -0.2057  -0.1128  -0.0665  -0.0210   0.0115   0.0546

     occupation numbers 
     1.0000   1.0000   1.0000   1.0000   1.0000   1.0000   1.0000   1.0000
     1.0000   1.0000   1.0000   1.0000   1.0000   1.0000   1.0000   1.0000
     1.0000   1.0000   1.0000   1.0000   1.0000   1.0000   1.0000   1.0000
     1.0000   1.0000   1.0000   1.0000   1.0000   1.0000   1.0000   1.0000
     1.0000   1.0000   1.0000   1.0000   1.0000   1.0000   1.0000   1.0000
     1.0000   1.0000   1.0000   1.0000   1.0000   1.0000   1.0000   1.0000
     1.0000   1.0000   1.0000   1.0000   1.0000   1.0000   1.0000   1.0000
     1.0000   1.0000   1.0000   1.0000   1.0000   1.0000   1.0000   1.0000

          k =-0.3835 0.0000-0.2002 ( 11057 PWs)   bands (ev):

   -13.5128 -13.4972 -13.4256 -13.4173 -12.9916 -12.9803 -12.9245 -12.9104
   -12.9029 -12.8685 -12.7835 -12.7723 -12.7168 -12.7050 -12.7005 -12.6837
    -4.0122  -3.9739  -3.9555  -3.9319  -2.6750  -2.6605  -2.5137  -2.4969
    -2.3886  -2.3134  -2.2451  -2.1280  -2.1113  -2.1030  -2.0675  -2.0396
    -1.7823  -1.6769  -1.5497  -1.4175  -1.4072  -1.3550  -1.1794  -1.1485
    -1.0304  -1.0070  -0.9533  -0.8641  -0.8319  -0.8251  -0.7416  -0.7249
    -0.7233  -0.6424  -0.4688  -0.4630  -0.3955  -0.3802  -0.3708  -0.3269
    -0.2905  -0.2251  -0.1514  -0.1389  -0.0993  -0.0162   0.0178   0.0630

     occupation numbers 
     1.0000   1.0000   1.0000   1.0000   1.0000   1.0000   1.0000   1.0000
     1.0000   1.0000   1.0000   1.0000   1.0000   1.0000   1.0000   1.0000
     1.0000   1.0000   1.0000   1.0000   1.0000   1.0000   1.0000   1.0000
     1.0000   1.0000   1.0000   1.0000   1.0000   1.0000   1.0000   1.0000
     1.0000   1.0000   1.0000   1.0000   1.0000   1.0000   1.0000   1.0000
     1.0000   1.0000   1.0000   1.0000   1.0000   1.0000   1.0000   1.0000
     1.0000   1.0000   1.0000   1.0000   1.0000   1.0000   1.0000   1.0000
     1.0000   1.0000   1.0000   1.0000   1.0000   1.0000   1.0000   1.0000

          k =-0.3605 0.0000 0.2002 ( 11041 PWs)   bands (ev):

   -13.5198 -13.4872 -13.4240 -13.4208 -13.0083 -12.9634 -12.9237 -12.9118
   -12.8883 -12.8814 -12.7791 -12.7779 -12.7148 -12.7085 -12.6970 -12.6845
    -4.0030  -3.9866  -3.9555  -3.9283  -2.6699  -2.6590  -2.5433  -2.4649
    -2.3936  -2.3341  -2.2059  -2.1542  -2.1393  -2.0805  -2.0702  -2.0220
    -1.7643  -1.6571  -1.5624  -1.5090  -1.3887  -1.3568  -1.1698  -1.1059
    -1.0570  -1.0417  -0.9321  -0.8389  -0.8197  -0.7928  -0.7744  -0.7256
    -0.6832  -0.6333  -0.4920  -0.4870  -0.4178  -0.3875  -0.3497  -0.3304
    -0.2435  -0.2120  -0.1953  -0.1246  -0.1218  -0.0228   0.0285   0.0571

     occupation numbers 
     1.0000   1.0000   1.0000   1.0000   1.0000   1.0000   1.0000   1.0000
     1.0000   1.0000   1.0000   1.0000   1.0000   1.0000   1.0000   1.0000
     1.0000   1.0000   1.0000   1.0000   1.0000   1.0000   1.0000   1.0000
     1.0000   1.0000   1.0000   1.0000   1.0000   1.0000   1.0000   1.0000
     1.0000   1.0000   1.0000   1.0000   1.0000   1.0000   1.0000   1.0000
     1.0000   1.0000   1.0000   1.0000   1.0000   1.0000   1.0000   1.0000
     1.0000   1.0000   1.0000   1.0000   1.0000   1.0000   1.0000   1.0000
     1.0000   1.0000   1.0000   1.0000   1.0000   1.0000   1.0000   1.0000

          k =-0.3662 0.0000 0.1001 ( 11051 PWs)   bands (ev):

   -13.5346 -13.4600 -13.4292 -13.4263 -13.0183 -12.9591 -12.9166 -12.9138
   -12.9085 -12.8637 -12.7800 -12.7711 -12.7147 -12.7141 -12.6936 -12.6881
    -4.0007  -3.9906  -3.9523  -3.9302  -2.6815  -2.6481  -2.5643  -2.4634
    -2.3675  -2.3582  -2.1982  -2.1605  -2.1443  -2.0710  -2.0473  -1.9973
    -1.7497  -1.7023  -1.5547  -1.5439  -1.3622  -1.3044  -1.1623  -1.1034
    -1.0954  -1.0517  -1.0102  -0.9014  -0.8492  -0.8221  -0.7239  -0.6383
    -0.6062  -0.5580  -0.5290  -0.5057  -0.4489  -0.4174  -0.3336  -0.3212
    -0.2602  -0.2187  -0.1958  -0.1271  -0.1004  -0.0252   0.0342   0.0397

     occupation numbers 
     1.0000   1.0000   1.0000   1.0000   1.0000   1.0000   1.0000   1.0000
     1.0000   1.0000   1.0000   1.0000   1.0000   1.0000   1.0000   1.0000
     1.0000   1.0000   1.0000   1.0000   1.0000   1.0000   1.0000   1.0000
     1.0000   1.0000   1.0000   1.0000   1.0000   1.0000   1.0000   1.0000
     1.0000   1.0000   1.0000   1.0000   1.0000   1.0000   1.0000   1.0000
     1.0000   1.0000   1.0000   1.0000   1.0000   1.0000   1.0000   1.0000
     1.0000   1.0000   1.0000   1.0000   1.0000   1.0000   1.0000   1.0000
     1.0000   1.0000   1.0000   1.0000   1.0000   1.0000   1.0000   1.0000

          k =-0.0000-0.2000 0.0000 ( 11077 PWs)   bands (ev):

   -13.6210 -13.4807 -13.4537 -13.3479 -12.9562 -12.9502 -12.8961 -12.8717
   -12.8620 -12.8412 -12.8331 -12.8156 -12.7612 -12.7439 -12.6753 -12.6658
    -4.1181  -4.0644  -4.0508  -4.0209  -2.7313  -2.6845  -2.5518  -2.4250
    -2.3984  -2.3594  -2.3239  -2.2615  -2.2157  -2.0247  -2.0034  -1.9134
    -1.6587  -1.6578  -1.4764  -1.4324  -1.3527  -1.3200  -1.2550  -1.2186
    -1.0614  -1.0465  -0.9654  -0.9154  -0.9052  -0.7051  -0.6913  -0.6670
    -0.5831  -0.4805  -0.4761  -0.4297  -0.3717  -0.3528  -0.3338  -0.2434
    -0.1790  -0.1249  -0.0968  -0.0784  -0.0205   0.0341   0.0350   0.0441

     occupation numbers 
     1.0000   1.0000   1.0000   1.0000   1.0000   1.0000   1.0000   1.0000
     1.0000   1.0000   1.0000   1.0000   1.0000   1.0000   1.0000   1.0000
     1.0000   1.0000   1.0000   1.0000   1.0000   1.0000   1.0000   1.0000
     1.0000   1.0000   1.0000   1.0000   1.0000   1.0000   1.0000   1.0000
     1.0000   1.0000   1.0000   1.0000   1.0000   1.0000   1.0000   1.0000
     1.0000   1.0000   1.0000   1.0000   1.0000   1.0000   1.0000   1.0000
     1.0000   1.0000   1.0000   1.0000   1.0000   1.0000   1.0000   1.0000
     1.0000   1.0000   1.0000   1.0000   1.0000   1.0000   1.0000   1.0000

          k =-0.0058-0.2000-0.1001 ( 11071 PWs)   bands (ev):

   -13.6133 -13.5151 -13.4221 -13.3518 -12.9573 -12.9502 -12.8938 -12.8750
   -12.8586 -12.8424 -12.8322 -12.8177 -12.7592 -12.7453 -12.6739 -12.6665
    -4.1152  -4.0769  -4.0396  -4.0206  -2.7252  -2.6875  -2.5432  -2.4343
    -2.4063  -2.3727  -2.3339  -2.2391  -2.1933  -2.0433  -1.9934  -1.9397
    -1.7154  -1.6412  -1.4628  -1.4258  -1.3495  -1.3070  -1.2492  -1.1732
    -1.0791  -1.0279  -0.9757  -0.9210  -0.8699  -0.7487  -0.6931  -0.6186
    -0.5865  -0.5376  -0.4526  -0.4253  -0.3951  -0.3433  -0.3207  -0.2436
    -0.1741  -0.1289  -0.1026  -0.0808  -0.0257   0.0272   0.0304   0.0450

     occupation numbers 
     1.0000   1.0000   1.0000   1.0000   1.0000   1.0000   1.0000   1.0000
     1.0000   1.0000   1.0000   1.0000   1.0000   1.0000   1.0000   1.0000
     1.0000   1.0000   1.0000   1.0000   1.0000   1.0000   1.0000   1.0000
     1.0000   1.0000   1.0000   1.0000   1.0000   1.0000   1.0000   1.0000
     1.0000   1.0000   1.0000   1.0000   1.0000   1.0000   1.0000   1.0000
     1.0000   1.0000   1.0000   1.0000   1.0000   1.0000   1.0000   1.0000
     1.0000   1.0000   1.0000   1.0000   1.0000   1.0000   1.0000   1.0000
     1.0000   1.0000   1.0000   1.0000   1.0000   1.0000   1.0000   1.0000

          k =-0.0115-0.2000-0.2002 ( 11069 PWs)   bands (ev):

   -13.5911 -13.5570 -13.3882 -13.3646 -12.9565 -12.9529 -12.8883 -12.8816
   -12.8524 -12.8465 -12.8285 -12.8229 -12.7547 -12.7496 -12.6711 -12.6681
    -4.1066  -4.0933  -4.0279  -4.0218  -2.7109  -2.6968  -2.5152  -2.4699
    -2.4140  -2.4042  -2.2993  -2.2602  -2.1235  -2.0629  -1.9979  -1.9933
    -1.7260  -1.6875  -1.4193  -1.3902  -1.3562  -1.3515  -1.1646  -1.1398
    -1.1127  -1.0655  -0.9115  -0.8748  -0.8495  -0.8031  -0.6747  -0.6495
    -0.5659  -0.5293  -0.5129  -0.4864  -0.3333  -0.3208  -0.3075  -0.2493
    -0.1779  -0.1461  -0.1094  -0.0939  -0.0144   0.0097   0.0296   0.0396

     occupation numbers 
     1.0000   1.0000   1.0000   1.0000   1.0000   1.0000   1.0000   1.0000
     1.0000   1.0000   1.0000   1.0000   1.0000   1.0000   1.0000   1.0000
     1.0000   1.0000   1.0000   1.0000   1.0000   1.0000   1.0000   1.0000
     1.0000   1.0000   1.0000   1.0000   1.0000   1.0000   1.0000   1.0000
     1.0000   1.0000   1.0000   1.0000   1.0000   1.0000   1.0000   1.0000
     1.0000   1.0000   1.0000   1.0000   1.0000   1.0000   1.0000   1.0000
     1.0000   1.0000   1.0000   1.0000   1.0000   1.0000   1.0000   1.0000
     1.0000   1.0000   1.0000   1.0000   1.0000   1.0000   1.0000   1.0000

          k =-0.1860-0.2000 0.0000 ( 11063 PWs)   bands (ev):

   -13.5921 -13.4670 -13.4414 -13.3635 -12.9659 -12.9624 -12.9298 -12.8981
   -12.8773 -12.8502 -12.8084 -12.7855 -12.7524 -12.7357 -12.6843 -12.6721
    -4.0849  -4.0311  -4.0122  -3.9714  -2.7063  -2.6692  -2.5756  -2.4402
    -2.3888  -2.3383  -2.2496  -2.2265  -2.1763  -2.0957  -1.9897  -1.9602
    -1.7129  -1.6411  -1.4700  -1.4356  -1.3955  -1.3295  -1.2553  -1.1619
    -1.1043  -1.0405  -0.9677  -0.9235  -0.8442  -0.7329  -0.7102  -0.6763
    -0.6121  -0.5204  -0.4778  -0.4398  -0.4137  -0.3498  -0.3375  -0.2758
    -0.2253  -0.1945  -0.1081  -0.0915  -0.0697  -0.0186   0.0390   0.0650

     occupation numbers 
     1.0000   1.0000   1.0000   1.0000   1.0000   1.0000   1.0000   1.0000
     1.0000   1.0000   1.0000   1.0000   1.0000   1.0000   1.0000   1.0000
     1.0000   1.0000   1.0000   1.0000   1.0000   1.0000   1.0000   1.0000
     1.0000   1.0000   1.0000   1.0000   1.0000   1.0000   1.0000   1.0000
     1.0000   1.0000   1.0000   1.0000   1.0000   1.0000   1.0000   1.0000
     1.0000   1.0000   1.0000   1.0000   1.0000   1.0000   1.0000   1.0000
     1.0000   1.0000   1.0000   1.0000   1.0000   1.0000   1.0000   1.0000
     1.0000   1.0000   1.0000   1.0000   1.0000   1.0000   1.0000   1.0000

          k =-0.1918-0.2000-0.1001 ( 11069 PWs)   bands (ev):

   -13.5837 -13.5004 -13.4128 -13.3670 -12.9674 -12.9544 -12.9325 -12.8965
   -12.8888 -12.8474 -12.8048 -12.7860 -12.7527 -12.7374 -12.6826 -12.6724
    -4.0844  -4.0358  -4.0077  -3.9706  -2.7004  -2.6740  -2.5808  -2.4219
    -2.3817  -2.3336  -2.3048  -2.2326  -2.1394  -2.0879  -1.9993  -1.9700
    -1.7365  -1.6468  -1.4627  -1.4277  -1.3639  -1.3251  -1.2569  -1.1924
    -1.0644  -1.0117  -0.9487  -0.9294  -0.8635  -0.7806  -0.7039  -0.6865
    -0.6426  -0.5149  -0.4542  -0.4475  -0.3835  -0.3468  -0.3260  -0.3108
    -0.2031  -0.1916  -0.1234  -0.0894  -0.0702  -0.0257   0.0448   0.0608

     occupation numbers 
     1.0000   1.0000   1.0000   1.0000   1.0000   1.0000   1.0000   1.0000
     1.0000   1.0000   1.0000   1.0000   1.0000   1.0000   1.0000   1.0000
     1.0000   1.0000   1.0000   1.0000   1.0000   1.0000   1.0000   1.0000
     1.0000   1.0000   1.0000   1.0000   1.0000   1.0000   1.0000   1.0000
     1.0000   1.0000   1.0000   1.0000   1.0000   1.0000   1.0000   1.0000
     1.0000   1.0000   1.0000   1.0000   1.0000   1.0000   1.0000   1.0000
     1.0000   1.0000   1.0000   1.0000   1.0000   1.0000   1.0000   1.0000
     1.0000   1.0000   1.0000   1.0000   1.0000   1.0000   1.0000   1.0000

          k =-0.1975-0.2000-0.2002 ( 11082 PWs)   bands (ev):

   -13.5621 -13.5372 -13.3878 -13.3761 -12.9710 -12.9505 -12.9300 -12.9036
   -12.8837 -12.8488 -12.8045 -12.7911 -12.7498 -12.7375 -12.6841 -12.6709
    -4.0838  -4.0382  -4.0082  -3.9666  -2.6928  -2.6855  -2.5670  -2.3978
    -2.3749  -2.3613  -2.3176  -2.2382  -2.1021  -2.0957  -2.0504  -1.9754
    -1.7515  -1.6704  -1.4746  -1.4206  -1.3411  -1.2673  -1.2262  -1.2231
    -1.0601  -0.9761  -0.9496  -0.9112  -0.8312  -0.8115  -0.7200  -0.6922
    -0.6367  -0.5222  -0.5072  -0.4427  -0.4081  -0.3586  -0.3119  -0.2540
    -0.2016  -0.1825  -0.1392  -0.0841  -0.0747  -0.0578   0.0506   0.0569

     occupation numbers 
     1.0000   1.0000   1.0000   1.0000   1.0000   1.0000   1.0000   1.0000
     1.0000   1.0000   1.0000   1.0000   1.0000   1.0000   1.0000   1.0000
     1.0000   1.0000   1.0000   1.0000   1.0000   1.0000   1.0000   1.0000
     1.0000   1.0000   1.0000   1.0000   1.0000   1.0000   1.0000   1.0000
     1.0000   1.0000   1.0000   1.0000   1.0000   1.0000   1.0000   1.0000
     1.0000   1.0000   1.0000   1.0000   1.0000   1.0000   1.0000   1.0000
     1.0000   1.0000   1.0000   1.0000   1.0000   1.0000   1.0000   1.0000
     1.0000   1.0000   1.0000   1.0000   1.0000   1.0000   1.0000   1.0000

          k =-0.1745-0.2000 0.2002 ( 11080 PWs)   bands (ev):

   -13.5676 -13.5294 -13.3942 -13.3718 -12.9741 -12.9532 -12.9268 -12.9041
   -12.8713 -12.8547 -12.8039 -12.7972 -12.7473 -12.7364 -12.6863 -12.6701
    -4.0838  -4.0356  -4.0121  -3.9651  -2.6981  -2.6829  -2.5525  -2.4256
    -2.3762  -2.3535  -2.2889  -2.2279  -2.1446  -2.1017  -2.0177  -2.0001
    -1.7318  -1.6896  -1.4931  -1.4272  -1.3095  -1.2839  -1.2095  -1.1820
    -1.0919  -1.0291  -0.9573  -0.8913  -0.8344  -0.7365  -0.7164  -0.6545
    -0.6011  -0.5893  -0.5303  -0.4662  -0.4316  -0.3418  -0.3072  -0.2566
    -0.2005  -0.1559  -0.1331  -0.1031  -0.0829  -0.0621   0.0486   0.0607

     occupation numbers 
     1.0000   1.0000   1.0000   1.0000   1.0000   1.0000   1.0000   1.0000
     1.0000   1.0000   1.0000   1.0000   1.0000   1.0000   1.0000   1.0000
     1.0000   1.0000   1.0000   1.0000   1.0000   1.0000   1.0000   1.0000
     1.0000   1.0000   1.0000   1.0000   1.0000   1.0000   1.0000   1.0000
     1.0000   1.0000   1.0000   1.0000   1.0000   1.0000   1.0000   1.0000
     1.0000   1.0000   1.0000   1.0000   1.0000   1.0000   1.0000   1.0000
     1.0000   1.0000   1.0000   1.0000   1.0000   1.0000   1.0000   1.0000
     1.0000   1.0000   1.0000   1.0000   1.0000   1.0000   1.0000   1.0000

          k =-0.1802-0.2000 0.1001 ( 11076 PWs)   bands (ev):

   -13.5866 -13.4914 -13.4208 -13.3648 -12.9733 -12.9582 -12.9271 -12.9008
   -12.8658 -12.8578 -12.8081 -12.7921 -12.7493 -12.7351 -12.6863 -12.6707
    -4.0847  -4.0296  -4.0165  -3.9678  -2.7063  -2.6731  -2.5596  -2.4429
    -2.3849  -2.3420  -2.2493  -2.2145  -2.1863  -2.1046  -2.0116  -1.9686
    -1.7011  -1.6811  -1.4965  -1.4334  -1.3609  -1.2920  -1.2117  -1.1740
    -1.1121  -1.0431  -0.9854  -0.9082  -0.8133  -0.7432  -0.6985  -0.6557
    -0.5806  -0.5344  -0.5155  -0.4780  -0.4557  -0.3509  -0.3156  -0.2466
    -0.2236  -0.1778  -0.1293  -0.0855  -0.0597  -0.0553   0.0433   0.0639

     occupation numbers 
     1.0000   1.0000   1.0000   1.0000   1.0000   1.0000   1.0000   1.0000
     1.0000   1.0000   1.0000   1.0000   1.0000   1.0000   1.0000   1.0000
     1.0000   1.0000   1.0000   1.0000   1.0000   1.0000   1.0000   1.0000
     1.0000   1.0000   1.0000   1.0000   1.0000   1.0000   1.0000   1.0000
     1.0000   1.0000   1.0000   1.0000   1.0000   1.0000   1.0000   1.0000
     1.0000   1.0000   1.0000   1.0000   1.0000   1.0000   1.0000   1.0000
     1.0000   1.0000   1.0000   1.0000   1.0000   1.0000   1.0000   1.0000
     1.0000   1.0000   1.0000   1.0000   1.0000   1.0000   1.0000   1.0000

          k =-0.3720-0.2000 0.0000 ( 11060 PWs)   bands (ev):

   -13.5184 -13.4435 -13.4213 -13.4180 -13.0106 -12.9756 -12.9324 -12.9238
   -12.9080 -12.8597 -12.7807 -12.7706 -12.7370 -12.7155 -12.7032 -12.6875
    -4.0168  -3.9952  -3.9241  -3.9030  -2.6381  -2.6340  -2.5911  -2.4684
    -2.4072  -2.3131  -2.2049  -2.1891  -2.1352  -2.0579  -2.0149  -1.9650
    -1.7715  -1.7285  -1.5530  -1.4470  -1.3630  -1.2688  -1.2520  -1.2051
    -1.0669  -1.0271  -0.9812  -0.9362  -0.8671  -0.7872  -0.7279  -0.6731
    -0.5828  -0.5493  -0.5355  -0.5109  -0.4569  -0.3879  -0.3702  -0.2981
    -0.2929  -0.2188  -0.1449  -0.1431  -0.0622  -0.0318  -0.0114   0.0192

     occupation numbers 
     1.0000   1.0000   1.0000   1.0000   1.0000   1.0000   1.0000   1.0000
     1.0000   1.0000   1.0000   1.0000   1.0000   1.0000   1.0000   1.0000
     1.0000   1.0000   1.0000   1.0000   1.0000   1.0000   1.0000   1.0000
     1.0000   1.0000   1.0000   1.0000   1.0000   1.0000   1.0000   1.0000
     1.0000   1.0000   1.0000   1.0000   1.0000   1.0000   1.0000   1.0000
     1.0000   1.0000   1.0000   1.0000   1.0000   1.0000   1.0000   1.0000
     1.0000   1.0000   1.0000   1.0000   1.0000   1.0000   1.0000   1.0000
     1.0000   1.0000   1.0000   1.0000   1.0000   1.0000   1.0000   1.0000

          k =-0.3778-0.2000-0.1001 ( 11049 PWs)   bands (ev):

   -13.5112 -13.4596 -13.4201 -13.4112 -12.9992 -12.9813 -12.9355 -12.9276
   -12.9028 -12.8614 -12.7818 -12.7709 -12.7370 -12.7155 -12.7019 -12.6871
    -4.0197  -3.9911  -3.9225  -3.9053  -2.6407  -2.6362  -2.5732  -2.4816
    -2.3909  -2.3327  -2.2282  -2.1572  -2.1256  -2.0480  -2.0154  -2.0011
    -1.7941  -1.7110  -1.5461  -1.4054  -1.3673  -1.2871  -1.2600  -1.1999
    -1.0707  -1.0244  -0.9667  -0.9321  -0.8554  -0.8043  -0.7611  -0.6869
    -0.5887  -0.5687  -0.5388  -0.4908  -0.4371  -0.3939  -0.3300  -0.3071
    -0.2698  -0.2303  -0.1639  -0.1350  -0.0811  -0.0280  -0.0030   0.0207

     occupation numbers 
     1.0000   1.0000   1.0000   1.0000   1.0000   1.0000   1.0000   1.0000
     1.0000   1.0000   1.0000   1.0000   1.0000   1.0000   1.0000   1.0000
     1.0000   1.0000   1.0000   1.0000   1.0000   1.0000   1.0000   1.0000
     1.0000   1.0000   1.0000   1.0000   1.0000   1.0000   1.0000   1.0000
     1.0000   1.0000   1.0000   1.0000   1.0000   1.0000   1.0000   1.0000
     1.0000   1.0000   1.0000   1.0000   1.0000   1.0000   1.0000   1.0000
     1.0000   1.0000   1.0000   1.0000   1.0000   1.0000   1.0000   1.0000
     1.0000   1.0000   1.0000   1.0000   1.0000   1.0000   1.0000   1.0000

          k =-0.3835-0.2000-0.2002 ( 11051 PWs)   bands (ev):

   -13.4951 -13.4810 -13.4193 -13.4085 -12.9908 -12.9817 -12.9428 -12.9317
   -12.8884 -12.8674 -12.7859 -12.7760 -12.7317 -12.7150 -12.7030 -12.6863
    -4.0204  -3.9873  -3.9292  -3.9015  -2.6435  -2.6328  -2.5574  -2.4839
    -2.3784  -2.3636  -2.2224  -2.1396  -2.1075  -2.0825  -2.0317  -2.0065
    -1.7958  -1.6953  -1.5400  -1.4232  -1.3695  -1.3180  -1.2525  -1.1583
    -1.0921  -1.0170  -0.9760  -0.8912  -0.8108  -0.7977  -0.7566  -0.7037
    -0.6598  -0.5992  -0.5455  -0.4839  -0.4022  -0.3937  -0.3273  -0.2722
    -0.2514  -0.2247  -0.1828  -0.1620  -0.0911  -0.0330   0.0014   0.0256

     occupation numbers 
     1.0000   1.0000   1.0000   1.0000   1.0000   1.0000   1.0000   1.0000
     1.0000   1.0000   1.0000   1.0000   1.0000   1.0000   1.0000   1.0000
     1.0000   1.0000   1.0000   1.0000   1.0000   1.0000   1.0000   1.0000
     1.0000   1.0000   1.0000   1.0000   1.0000   1.0000   1.0000   1.0000
     1.0000   1.0000   1.0000   1.0000   1.0000   1.0000   1.0000   1.0000
     1.0000   1.0000   1.0000   1.0000   1.0000   1.0000   1.0000   1.0000
     1.0000   1.0000   1.0000   1.0000   1.0000   1.0000   1.0000   1.0000
     1.0000   1.0000   1.0000   1.0000   1.0000   1.0000   1.0000   1.0000

          k =-0.3605-0.2000 0.2002 ( 11062 PWs)   bands (ev):

   -13.5022 -13.4712 -13.4207 -13.4096 -13.0030 -12.9683 -12.9466 -12.9309
   -12.8812 -12.8720 -12.7862 -12.7794 -12.7289 -12.7145 -12.7051 -12.6862
    -4.0185  -3.9883  -3.9335  -3.8984  -2.6426  -2.6290  -2.5712  -2.4536
    -2.4237  -2.3350  -2.1961  -2.1804  -2.1087  -2.0865  -2.0333  -1.9902
    -1.7767  -1.7011  -1.5458  -1.4547  -1.3824  -1.3101  -1.2434  -1.1393
    -1.1249  -1.0220  -0.9345  -0.8849  -0.8242  -0.7608  -0.7410  -0.6956
    -0.6737  -0.6124  -0.5611  -0.4872  -0.4210  -0.3758  -0.3248  -0.3054
    -0.2495  -0.1988  -0.1726  -0.1688  -0.0993  -0.0392   0.0083   0.0211

     occupation numbers 
     1.0000   1.0000   1.0000   1.0000   1.0000   1.0000   1.0000   1.0000
     1.0000   1.0000   1.0000   1.0000   1.0000   1.0000   1.0000   1.0000
     1.0000   1.0000   1.0000   1.0000   1.0000   1.0000   1.0000   1.0000
     1.0000   1.0000   1.0000   1.0000   1.0000   1.0000   1.0000   1.0000
     1.0000   1.0000   1.0000   1.0000   1.0000   1.0000   1.0000   1.0000
     1.0000   1.0000   1.0000   1.0000   1.0000   1.0000   1.0000   1.0000
     1.0000   1.0000   1.0000   1.0000   1.0000   1.0000   1.0000   1.0000
     1.0000   1.0000   1.0000   1.0000   1.0000   1.0000   1.0000   1.0000

          k =-0.3662-0.2000 0.1001 ( 11057 PWs)   bands (ev):

   -13.5149 -13.4484 -13.4257 -13.4128 -13.0118 -12.9696 -12.9381 -12.9276
   -12.8965 -12.8621 -12.7871 -12.7715 -12.7330 -12.7140 -12.7056 -12.6868
    -4.0159  -3.9935  -3.9305  -3.8988  -2.6402  -2.6287  -2.5894  -2.4536
    -2.4211  -2.3150  -2.2103  -2.1846  -2.1199  -2.0811  -2.0229  -1.9638
    -1.7562  -1.7260  -1.5519  -1.4763  -1.3799  -1.2669  -1.2508  -1.1782
    -1.1009  -1.0185  -0.9618  -0.9154  -0.8261  -0.7742  -0.7209  -0.6790
    -0.6154  -0.5939  -0.5726  -0.4660  -0.4585  -0.3861  -0.3497  -0.3036
    -0.2912  -0.1926  -0.1675  -0.1415  -0.0757  -0.0458   0.0005   0.0206

     occupation numbers 
     1.0000   1.0000   1.0000   1.0000   1.0000   1.0000   1.0000   1.0000
     1.0000   1.0000   1.0000   1.0000   1.0000   1.0000   1.0000   1.0000
     1.0000   1.0000   1.0000   1.0000   1.0000   1.0000   1.0000   1.0000
     1.0000   1.0000   1.0000   1.0000   1.0000   1.0000   1.0000   1.0000
     1.0000   1.0000   1.0000   1.0000   1.0000   1.0000   1.0000   1.0000
     1.0000   1.0000   1.0000   1.0000   1.0000   1.0000   1.0000   1.0000
     1.0000   1.0000   1.0000   1.0000   1.0000   1.0000   1.0000   1.0000
     1.0000   1.0000   1.0000   1.0000   1.0000   1.0000   1.0000   1.0000

          k =-0.0000-0.4000 0.0000 ( 11090 PWs)   bands (ev):

   -13.5493 -13.4860 -13.4216 -13.3880 -12.9736 -12.9667 -12.8918 -12.8857
   -12.8542 -12.8444 -12.8254 -12.8175 -12.7801 -12.7664 -12.6745 -12.6705
    -4.1045  -4.0741  -4.0416  -4.0359  -2.5942  -2.5780  -2.5583  -2.5262
    -2.4627  -2.4368  -2.2767  -2.2180  -2.1842  -2.0441  -1.9092  -1.8835
    -1.7017  -1.6917  -1.4845  -1.4563  -1.3587  -1.2715  -1.1984  -1.1958
    -1.0869  -1.0546  -1.0088  -0.8639  -0.8519  -0.7238  -0.7039  -0.6546
    -0.6376  -0.5685  -0.4172  -0.3744  -0.3653  -0.3379  -0.2940  -0.2161
    -0.1909  -0.1790  -0.1593  -0.1418  -0.0148  -0.0145   0.0093   0.0395

     occupation numbers 
     1.0000   1.0000   1.0000   1.0000   1.0000   1.0000   1.0000   1.0000
     1.0000   1.0000   1.0000   1.0000   1.0000   1.0000   1.0000   1.0000
     1.0000   1.0000   1.0000   1.0000   1.0000   1.0000   1.0000   1.0000
     1.0000   1.0000   1.0000   1.0000   1.0000   1.0000   1.0000   1.0000
     1.0000   1.0000   1.0000   1.0000   1.0000   1.0000   1.0000   1.0000
     1.0000   1.0000   1.0000   1.0000   1.0000   1.0000   1.0000   1.0000
     1.0000   1.0000   1.0000   1.0000   1.0000   1.0000   1.0000   1.0000
     1.0000   1.0000   1.0000   1.0000   1.0000   1.0000   1.0000   1.0000

          k =-0.0058-0.4000-0.1001 ( 11082 PWs)   bands (ev):

   -13.5443 -13.4935 -13.4172 -13.3903 -12.9718 -12.9641 -12.8916 -12.8863
   -12.8522 -12.8431 -12.8290 -12.8217 -12.7772 -12.7669 -12.6741 -12.6708
    -4.1013  -4.0763  -4.0410  -4.0352  -2.5869  -2.5777  -2.5597  -2.5300
    -2.4670  -2.4481  -2.2592  -2.2213  -2.1816  -2.0624  -1.9187  -1.9014
    -1.7272  -1.6893  -1.4380  -1.3915  -1.3517  -1.2709  -1.2058  -1.1712
    -1.1082  -1.0707  -1.0304  -0.8927  -0.8367  -0.7333  -0.7126  -0.6745
    -0.6007  -0.5436  -0.4293  -0.3766  -0.3628  -0.3127  -0.2870  -0.2300
    -0.2168  -0.1707  -0.1668  -0.1429  -0.0215  -0.0078   0.0061   0.0370

     occupation numbers 
     1.0000   1.0000   1.0000   1.0000   1.0000   1.0000   1.0000   1.0000
     1.0000   1.0000   1.0000   1.0000   1.0000   1.0000   1.0000   1.0000
     1.0000   1.0000   1.0000   1.0000   1.0000   1.0000   1.0000   1.0000
     1.0000   1.0000   1.0000   1.0000   1.0000   1.0000   1.0000   1.0000
     1.0000   1.0000   1.0000   1.0000   1.0000   1.0000   1.0000   1.0000
     1.0000   1.0000   1.0000   1.0000   1.0000   1.0000   1.0000   1.0000
     1.0000   1.0000   1.0000   1.0000   1.0000   1.0000   1.0000   1.0000
     1.0000   1.0000   1.0000   1.0000   1.0000   1.0000   1.0000   1.0000

          k =-0.0115-0.4000-0.2002 ( 11052 PWs)   bands (ev):

   -13.5303 -13.5110 -13.4073 -13.3971 -12.9661 -12.9623 -12.8905 -12.8884
   -12.8467 -12.8410 -12.8347 -12.8297 -12.7721 -12.7684 -12.6727 -12.6713
    -4.0930  -4.0834  -4.0381  -4.0354  -2.5770  -2.5726  -2.5573  -2.5412
    -2.4738  -2.4669  -2.2314  -2.2211  -2.1678  -2.1147  -1.9307  -1.9234
    -1.7251  -1.7070  -1.3589  -1.3424  -1.3107  -1.2508  -1.2105  -1.1505
    -1.1197  -1.0921  -1.0660  -0.9789  -0.8001  -0.7618  -0.7114  -0.6977
    -0.5426  -0.5154  -0.4332  -0.3981  -0.3408  -0.3066  -0.2619  -0.2571
    -0.2173  -0.1883  -0.1742  -0.1614  -0.0188  -0.0117   0.0130   0.0273

     occupation numbers 
     1.0000   1.0000   1.0000   1.0000   1.0000   1.0000   1.0000   1.0000
     1.0000   1.0000   1.0000   1.0000   1.0000   1.0000   1.0000   1.0000
     1.0000   1.0000   1.0000   1.0000   1.0000   1.0000   1.0000   1.0000
     1.0000   1.0000   1.0000   1.0000   1.0000   1.0000   1.0000   1.0000
     1.0000   1.0000   1.0000   1.0000   1.0000   1.0000   1.0000   1.0000
     1.0000   1.0000   1.0000   1.0000   1.0000   1.0000   1.0000   1.0000
     1.0000   1.0000   1.0000   1.0000   1.0000   1.0000   1.0000   1.0000
     1.0000   1.0000   1.0000   1.0000   1.0000   1.0000   1.0000   1.0000

          k =-0.1860-0.4000 0.0000 ( 11079 PWs)   bands (ev):

   -13.5268 -13.4704 -13.4126 -13.3875 -12.9750 -12.9736 -12.9360 -12.9134
   -12.8692 -12.8550 -12.8124 -12.7913 -12.7665 -12.7551 -12.6838 -12.6786
    -4.0771  -4.0526  -3.9868  -3.9683  -2.6056  -2.6028  -2.5518  -2.4609
    -2.4393  -2.4027  -2.2741  -2.2309  -2.1262  -2.0949  -1.9092  -1.8982
    -1.7362  -1.7099  -1.4879  -1.4665  -1.3427  -1.2809  -1.2253  -1.1330
    -1.0996  -1.0330  -1.0290  -0.9499  -0.8249  -0.7833  -0.7559  -0.6804
    -0.6314  -0.5636  -0.4507  -0.3984  -0.3576  -0.3363  -0.2965  -0.2814
    -0.2351  -0.1789  -0.1439  -0.1283  -0.0640  -0.0308  -0.0113   0.0255

     occupation numbers 
     1.0000   1.0000   1.0000   1.0000   1.0000   1.0000   1.0000   1.0000
     1.0000   1.0000   1.0000   1.0000   1.0000   1.0000   1.0000   1.0000
     1.0000   1.0000   1.0000   1.0000   1.0000   1.0000   1.0000   1.0000
     1.0000   1.0000   1.0000   1.0000   1.0000   1.0000   1.0000   1.0000
     1.0000   1.0000   1.0000   1.0000   1.0000   1.0000   1.0000   1.0000
     1.0000   1.0000   1.0000   1.0000   1.0000   1.0000   1.0000   1.0000
     1.0000   1.0000   1.0000   1.0000   1.0000   1.0000   1.0000   1.0000
     1.0000   1.0000   1.0000   1.0000   1.0000   1.0000   1.0000   1.0000

          k =-0.1918-0.4000-0.1001 ( 11066 PWs)   bands (ev):

   -13.5211 -13.4789 -13.4069 -13.3913 -12.9736 -12.9712 -12.9367 -12.9140
   -12.8639 -12.8530 -12.8157 -12.8018 -12.7618 -12.7536 -12.6834 -12.6785
    -4.0734  -4.0548  -3.9845  -3.9706  -2.6072  -2.5933  -2.5626  -2.4669
    -2.4498  -2.3863  -2.2910  -2.2113  -2.1028  -2.0971  -1.9205  -1.8952
    -1.7807  -1.7507  -1.4317  -1.4240  -1.3267  -1.2709  -1.2469  -1.1499
    -1.0791  -1.0555  -1.0158  -0.9824  -0.8250  -0.7807  -0.7544  -0.6902
    -0.6101  -0.5639  -0.4571  -0.3940  -0.3597  -0.3369  -0.3078  -0.2595
    -0.2431  -0.1784  -0.1353  -0.1281  -0.0697  -0.0395  -0.0055   0.0199

     occupation numbers 
     1.0000   1.0000   1.0000   1.0000   1.0000   1.0000   1.0000   1.0000
     1.0000   1.0000   1.0000   1.0000   1.0000   1.0000   1.0000   1.0000
     1.0000   1.0000   1.0000   1.0000   1.0000   1.0000   1.0000   1.0000
     1.0000   1.0000   1.0000   1.0000   1.0000   1.0000   1.0000   1.0000
     1.0000   1.0000   1.0000   1.0000   1.0000   1.0000   1.0000   1.0000
     1.0000   1.0000   1.0000   1.0000   1.0000   1.0000   1.0000   1.0000
     1.0000   1.0000   1.0000   1.0000   1.0000   1.0000   1.0000   1.0000
     1.0000   1.0000   1.0000   1.0000   1.0000   1.0000   1.0000   1.0000

          k =-0.1975-0.4000-0.2002 ( 11067 PWs)   bands (ev):

   -13.5075 -13.4946 -13.3993 -13.3980 -12.9696 -12.9668 -12.9376 -12.9192
   -12.8631 -12.8570 -12.8115 -12.7998 -12.7649 -12.7545 -12.6841 -12.6782
    -4.0722  -4.0522  -3.9880  -3.9685  -2.6030  -2.5921  -2.5607  -2.4838
    -2.4605  -2.3832  -2.2769  -2.1954  -2.1202  -2.0926  -1.9512  -1.9174
    -1.7810  -1.7475  -1.3949  -1.3657  -1.3231  -1.2609  -1.2294  -1.1900
    -1.1013  -1.0570  -1.0219  -0.9808  -0.8371  -0.7974  -0.7577  -0.6945
    -0.5677  -0.5486  -0.4565  -0.3831  -0.3659  -0.3506  -0.3209  -0.2592
    -0.2175  -0.1840  -0.1450  -0.1270  -0.0792  -0.0588  -0.0003   0.0179

     occupation numbers 
     1.0000   1.0000   1.0000   1.0000   1.0000   1.0000   1.0000   1.0000
     1.0000   1.0000   1.0000   1.0000   1.0000   1.0000   1.0000   1.0000
     1.0000   1.0000   1.0000   1.0000   1.0000   1.0000   1.0000   1.0000
     1.0000   1.0000   1.0000   1.0000   1.0000   1.0000   1.0000   1.0000
     1.0000   1.0000   1.0000   1.0000   1.0000   1.0000   1.0000   1.0000
     1.0000   1.0000   1.0000   1.0000   1.0000   1.0000   1.0000   1.0000
     1.0000   1.0000   1.0000   1.0000   1.0000   1.0000   1.0000   1.0000
     1.0000   1.0000   1.0000   1.0000   1.0000   1.0000   1.0000   1.0000

          k =-0.1745-0.4000 0.2002 ( 11068 PWs)   bands (ev):

   -13.5118 -13.4893 -13.4065 -13.3919 -12.9681 -12.9664 -12.9374 -12.9216
   -12.8666 -12.8620 -12.8005 -12.7929 -12.7698 -12.7589 -12.6847 -12.6775
    -4.0751  -4.0482  -3.9918  -3.9656  -2.6044  -2.5878  -2.5620  -2.4755
    -2.4677  -2.3898  -2.2584  -2.1964  -2.1500  -2.0945  -1.9584  -1.9344
    -1.7407  -1.7137  -1.4385  -1.3544  -1.3277  -1.2733  -1.1997  -1.1926
    -1.1266  -1.0623  -1.0287  -0.9179  -0.8674  -0.8219  -0.7435  -0.6905
    -0.5778  -0.5196  -0.4486  -0.4048  -0.3656  -0.3432  -0.3085  -0.2799
    -0.2057  -0.1900  -0.1543  -0.1238  -0.0822  -0.0633  -0.0024   0.0232

     occupation numbers 
     1.0000   1.0000   1.0000   1.0000   1.0000   1.0000   1.0000   1.0000
     1.0000   1.0000   1.0000   1.0000   1.0000   1.0000   1.0000   1.0000
     1.0000   1.0000   1.0000   1.0000   1.0000   1.0000   1.0000   1.0000
     1.0000   1.0000   1.0000   1.0000   1.0000   1.0000   1.0000   1.0000
     1.0000   1.0000   1.0000   1.0000   1.0000   1.0000   1.0000   1.0000
     1.0000   1.0000   1.0000   1.0000   1.0000   1.0000   1.0000   1.0000
     1.0000   1.0000   1.0000   1.0000   1.0000   1.0000   1.0000   1.0000
     1.0000   1.0000   1.0000   1.0000   1.0000   1.0000   1.0000   1.0000

          k =-0.1802-0.4000 0.1001 ( 11081 PWs)   bands (ev):

   -13.5234 -13.4745 -13.4125 -13.3877 -12.9730 -12.9694 -12.9364 -12.9178
   -12.8702 -12.8611 -12.8002 -12.7877 -12.7711 -12.7597 -12.6846 -12.6780
    -4.0779  -4.0488  -3.9909  -3.9655  -2.6086  -2.5927  -2.5550  -2.4717
    -2.4448  -2.4020  -2.2523  -2.2261  -2.1489  -2.0976  -1.9345  -1.9210
    -1.7078  -1.6897  -1.4937  -1.4345  -1.3445  -1.2604  -1.2085  -1.1641
    -1.1181  -1.0595  -1.0133  -0.9118  -0.8461  -0.8258  -0.7395  -0.6835
    -0.6125  -0.5371  -0.4523  -0.3890  -0.3615  -0.3392  -0.3069  -0.2862
    -0.2242  -0.1710  -0.1626  -0.1256  -0.0743  -0.0450  -0.0073   0.0276

     occupation numbers 
     1.0000   1.0000   1.0000   1.0000   1.0000   1.0000   1.0000   1.0000
     1.0000   1.0000   1.0000   1.0000   1.0000   1.0000   1.0000   1.0000
     1.0000   1.0000   1.0000   1.0000   1.0000   1.0000   1.0000   1.0000
     1.0000   1.0000   1.0000   1.0000   1.0000   1.0000   1.0000   1.0000
     1.0000   1.0000   1.0000   1.0000   1.0000   1.0000   1.0000   1.0000
     1.0000   1.0000   1.0000   1.0000   1.0000   1.0000   1.0000   1.0000
     1.0000   1.0000   1.0000   1.0000   1.0000   1.0000   1.0000   1.0000
     1.0000   1.0000   1.0000   1.0000   1.0000   1.0000   1.0000   1.0000

          k =-0.3720-0.4000 0.0000 ( 11068 PWs)   bands (ev):

   -13.4735 -13.4428 -13.4007 -13.3996 -13.0003 -12.9925 -12.9625 -12.9568
   -12.8771 -12.8602 -12.7982 -12.7877 -12.7425 -12.7312 -12.7041 -12.6980
    -4.0185  -4.0097  -3.8858  -3.8735  -2.6125  -2.6031  -2.5657  -2.5031
    -2.3613  -2.3019  -2.2733  -2.2639  -2.0610  -2.0424  -1.9225  -1.8967
    -1.7807  -1.7371  -1.5532  -1.5117  -1.3293  -1.2999  -1.2664  -1.2050
    -1.0905  -1.0150  -1.0036  -0.9505  -0.8460  -0.8155  -0.7693  -0.7252
    -0.6697  -0.6337  -0.4999  -0.4344  -0.4025  -0.3710  -0.2942  -0.2727
    -0.2320  -0.2202  -0.1532  -0.1335  -0.1141  -0.0739  -0.0382   0.0061

     occupation numbers 
     1.0000   1.0000   1.0000   1.0000   1.0000   1.0000   1.0000   1.0000
     1.0000   1.0000   1.0000   1.0000   1.0000   1.0000   1.0000   1.0000
     1.0000   1.0000   1.0000   1.0000   1.0000   1.0000   1.0000   1.0000
     1.0000   1.0000   1.0000   1.0000   1.0000   1.0000   1.0000   1.0000
     1.0000   1.0000   1.0000   1.0000   1.0000   1.0000   1.0000   1.0000
     1.0000   1.0000   1.0000   1.0000   1.0000   1.0000   1.0000   1.0000
     1.0000   1.0000   1.0000   1.0000   1.0000   1.0000   1.0000   1.0000
     1.0000   1.0000   1.0000   1.0000   1.0000   1.0000   1.0000   1.0000

          k =-0.3778-0.4000-0.1001 ( 11057 PWs)   bands (ev):

   -13.4685 -13.4457 -13.4046 -13.3988 -12.9955 -12.9914 -12.9644 -12.9601
   -12.8744 -12.8617 -12.7968 -12.7870 -12.7438 -12.7310 -12.7044 -12.6983
    -4.0179  -4.0090  -3.8842  -3.8763  -2.6111  -2.6038  -2.5633  -2.5152
    -2.3603  -2.2935  -2.2828  -2.2247  -2.0780  -2.0574  -1.9166  -1.8936
    -1.7939  -1.7367  -1.5436  -1.4932  -1.3643  -1.3399  -1.2232  -1.2041
    -1.1126  -1.0387  -0.9667  -0.9054  -0.8449  -0.8200  -0.8102  -0.7349
    -0.6674  -0.6022  -0.4984  -0.4275  -0.4054  -0.3896  -0.2931  -0.2721
    -0.2162  -0.2106  -0.1694  -0.1399  -0.1071  -0.0718  -0.0351  -0.0022

     occupation numbers 
     1.0000   1.0000   1.0000   1.0000   1.0000   1.0000   1.0000   1.0000
     1.0000   1.0000   1.0000   1.0000   1.0000   1.0000   1.0000   1.0000
     1.0000   1.0000   1.0000   1.0000   1.0000   1.0000   1.0000   1.0000
     1.0000   1.0000   1.0000   1.0000   1.0000   1.0000   1.0000   1.0000
     1.0000   1.0000   1.0000   1.0000   1.0000   1.0000   1.0000   1.0000
     1.0000   1.0000   1.0000   1.0000   1.0000   1.0000   1.0000   1.0000
     1.0000   1.0000   1.0000   1.0000   1.0000   1.0000   1.0000   1.0000
     1.0000   1.0000   1.0000   1.0000   1.0000   1.0000   1.0000   1.0000

          k =-0.3835-0.4000-0.2002 ( 11046 PWs)   bands (ev):

   -13.4593 -13.4514 -13.4080 -13.3998 -12.9885 -12.9857 -12.9704 -12.9641
   -12.8760 -12.8687 -12.7894 -12.7732 -12.7510 -12.7357 -12.7052 -12.6987
    -4.0184  -4.0063  -3.8865  -3.8757  -2.6076  -2.5948  -2.5716  -2.5330
    -2.3550  -2.3110  -2.2461  -2.1773  -2.0992  -2.0893  -1.9303  -1.8939
    -1.7948  -1.7435  -1.5226  -1.4705  -1.3851  -1.3786  -1.2172  -1.1809
    -1.1287  -1.0542  -0.9612  -0.8852  -0.8432  -0.8114  -0.7816  -0.7658
    -0.6616  -0.5844  -0.4824  -0.4350  -0.4108  -0.4066  -0.2959  -0.2663
    -0.2217  -0.2054  -0.1852  -0.1518  -0.0905  -0.0646  -0.0382  -0.0039

     occupation numbers 
     1.0000   1.0000   1.0000   1.0000   1.0000   1.0000   1.0000   1.0000
     1.0000   1.0000   1.0000   1.0000   1.0000   1.0000   1.0000   1.0000
     1.0000   1.0000   1.0000   1.0000   1.0000   1.0000   1.0000   1.0000
     1.0000   1.0000   1.0000   1.0000   1.0000   1.0000   1.0000   1.0000
     1.0000   1.0000   1.0000   1.0000   1.0000   1.0000   1.0000   1.0000
     1.0000   1.0000   1.0000   1.0000   1.0000   1.0000   1.0000   1.0000
     1.0000   1.0000   1.0000   1.0000   1.0000   1.0000   1.0000   1.0000
     1.0000   1.0000   1.0000   1.0000   1.0000   1.0000   1.0000   1.0000

          k =-0.3605-0.4000 0.2002 ( 11049 PWs)   bands (ev):

   -13.4635 -13.4460 -13.4097 -13.3990 -12.9911 -12.9815 -12.9728 -12.9619
   -12.8790 -12.8722 -12.7790 -12.7740 -12.7482 -12.7430 -12.7057 -12.6987
    -4.0191  -4.0057  -3.8888  -3.8732  -2.5988  -2.5898  -2.5883  -2.5306
    -2.3471  -2.3266  -2.2336  -2.1879  -2.0984  -2.0785  -1.9414  -1.9033
    -1.7762  -1.7485  -1.5275  -1.4855  -1.3703  -1.3573  -1.2353  -1.1816
    -1.0879  -1.0759  -0.9920  -0.8945  -0.8366  -0.7986  -0.7743  -0.7477
    -0.6582  -0.5996  -0.4836  -0.4373  -0.4230  -0.3872  -0.2953  -0.2632
    -0.2491  -0.2159  -0.1768  -0.1466  -0.0800  -0.0728  -0.0411   0.0043

     occupation numbers 
     1.0000   1.0000   1.0000   1.0000   1.0000   1.0000   1.0000   1.0000
     1.0000   1.0000   1.0000   1.0000   1.0000   1.0000   1.0000   1.0000
     1.0000   1.0000   1.0000   1.0000   1.0000   1.0000   1.0000   1.0000
     1.0000   1.0000   1.0000   1.0000   1.0000   1.0000   1.0000   1.0000
     1.0000   1.0000   1.0000   1.0000   1.0000   1.0000   1.0000   1.0000
     1.0000   1.0000   1.0000   1.0000   1.0000   1.0000   1.0000   1.0000
     1.0000   1.0000   1.0000   1.0000   1.0000   1.0000   1.0000   1.0000
     1.0000   1.0000   1.0000   1.0000   1.0000   1.0000   1.0000   1.0000

          k =-0.3662-0.4000 0.1001 ( 11069 PWs)   bands (ev):

   -13.4715 -13.4417 -13.4065 -13.3974 -12.9978 -12.9886 -12.9661 -12.9572
   -12.8825 -12.8643 -12.7936 -12.7729 -12.7487 -12.7356 -12.7053 -12.6984
    -4.0194  -4.0076  -3.8882  -3.8720  -2.6059  -2.5972  -2.5788  -2.5122
    -2.3520  -2.3212  -2.2619  -2.2317  -2.0655  -2.0545  -1.9379  -1.9039
    -1.7656  -1.7486  -1.5426  -1.5077  -1.3426  -1.3133  -1.2622  -1.1888
    -1.0787  -1.0288  -1.0212  -0.9538  -0.8313  -0.7989  -0.7548  -0.7325
    -0.6605  -0.6366  -0.4993  -0.4348  -0.4040  -0.3737  -0.2998  -0.2719
    -0.2449  -0.2208  -0.1654  -0.1393  -0.0933  -0.0746  -0.0398   0.0093

     occupation numbers 
     1.0000   1.0000   1.0000   1.0000   1.0000   1.0000   1.0000   1.0000
     1.0000   1.0000   1.0000   1.0000   1.0000   1.0000   1.0000   1.0000
     1.0000   1.0000   1.0000   1.0000   1.0000   1.0000   1.0000   1.0000
     1.0000   1.0000   1.0000   1.0000   1.0000   1.0000   1.0000   1.0000
     1.0000   1.0000   1.0000   1.0000   1.0000   1.0000   1.0000   1.0000
     1.0000   1.0000   1.0000   1.0000   1.0000   1.0000   1.0000   1.0000
     1.0000   1.0000   1.0000   1.0000   1.0000   1.0000   1.0000   1.0000
     1.0000   1.0000   1.0000   1.0000   1.0000   1.0000   1.0000   1.0000

     highest occupied level (ev):     0.0824

!    total energy              =    -501.45851634 Ry
     estimated scf accuracy    <       0.00000087 Ry

     The total energy is the sum of the following terms:
     one-electron contribution =    -126.88626473 Ry
     hartree contribution      =     109.46430718 Ry
     xc contribution           =    -102.54334357 Ry
     ewald contribution        =    -381.49321522 Ry

     convergence has been achieved in   7 iterations

     Forces acting on atoms (cartesian axes, Ry/au):

     atom    1 type  1   force =    -0.00092073    0.00074415    0.00192913
     atom    2 type  1   force =     0.00092073    0.00074415   -0.00192913
     atom    3 type  1   force =     0.00092073   -0.00074415   -0.00192913
     atom    4 type  1   force =    -0.00092073   -0.00074415    0.00192913
     atom    5 type  2   force =    -0.00068439   -0.00192869    0.00194546
     atom    6 type  2   force =     0.00068439   -0.00192869   -0.00194546
     atom    7 type  2   force =     0.00068439    0.00192869   -0.00194546
     atom    8 type  2   force =    -0.00068439    0.00192869    0.00194546
     atom    9 type  3   force =    -0.00034494    0.00719029    0.01440590
     atom   10 type  3   force =     0.00034494    0.00719029   -0.01440590
     atom   11 type  3   force =     0.00034494   -0.00719029   -0.01440590
     atom   12 type  3   force =    -0.00034494   -0.00719029    0.01440590
     atom   13 type  3   force =     0.00596773   -0.01417572    0.00170755
     atom   14 type  3   force =    -0.00596773   -0.01417572   -0.00170755
     atom   15 type  3   force =    -0.00596773    0.01417572   -0.00170755
     atom   16 type  3   force =     0.00596773    0.01417572    0.00170755
     atom   17 type  3   force =     0.01180115    0.00731163   -0.01005809
     atom   18 type  3   force =    -0.01180115    0.00731163    0.01005809
     atom   19 type  3   force =    -0.01180115   -0.00731163    0.01005809
     atom   20 type  3   force =     0.01180115   -0.00731163   -0.01005809
     atom   21 type  3   force =    -0.01449757    0.00069591   -0.00795181
     atom   22 type  3   force =     0.01449757    0.00069591    0.00795181
     atom   23 type  3   force =     0.01449757   -0.00069591    0.00795181
     atom   24 type  3   force =    -0.01449757   -0.00069591   -0.00795181
     The non-local contrib.  to forces
     atom    1 type  1   force =    -0.01735277   -0.01337193   -0.00098286
     atom    2 type  1   force =     0.01735277   -0.01337193    0.00098286
     atom    3 type  1   force =     0.01735277    0.01337193    0.00098286
     atom    4 type  1   force =    -0.01735277    0.01337193   -0.00098286
     atom    5 type  2   force =     0.00080924    0.01441173   -0.03005297
     atom    6 type  2   force =    -0.00080924    0.01441173    0.03005297
     atom    7 type  2   force =    -0.00080924   -0.01441173    0.03005297
     atom    8 type  2   force =     0.00080924   -0.01441173   -0.03005297
     atom    9 type  3   force =     0.04932320   -0.18126926   -0.19614220
     atom   10 type  3   force =    -0.04932320   -0.18126926    0.19614220
     atom   11 type  3   force =    -0.04932320    0.18126926    0.19614220
     atom   12 type  3   force =     0.04932320    0.18126926   -0.19614220
     atom   13 type  3   force =    -0.02397982    0.25858897   -0.01801214
     atom   14 type  3   force =     0.02397982    0.25858897    0.01801214
     atom   15 type  3   force =     0.02397982   -0.25858897    0.01801214
     atom   16 type  3   force =    -0.02397982   -0.25858897   -0.01801214
     atom   17 type  3   force =    -0.18757962   -0.11498348    0.06328494
     atom   18 type  3   force =     0.18757962   -0.11498348   -0.06328494
     atom   19 type  3   force =     0.18757962    0.11498348   -0.06328494
     atom   20 type  3   force =    -0.18757962    0.11498348    0.06328494
     atom   21 type  3   force =     0.16581520   -0.07399202    0.18563535
     atom   22 type  3   force =    -0.16581520   -0.07399202   -0.18563535
     atom   23 type  3   force =    -0.16581520    0.07399202   -0.18563535
     atom   24 type  3   force =     0.16581520    0.07399202    0.18563535
     The ionic contribution  to forces
     atom    1 type  1   force =    -0.02423539   -0.05007099   -0.11403160
     atom    2 type  1   force =     0.02423539   -0.05007099    0.11403160
     atom    3 type  1   force =     0.02423539    0.05007099    0.11403160
     atom    4 type  1   force =    -0.02423539    0.05007099   -0.11403160
     atom    5 type  2   force =    -0.18827817    0.26150167   -0.19527978
     atom    6 type  2   force =     0.18827817    0.26150167    0.19527978
     atom    7 type  2   force =     0.18827817   -0.26150167    0.19527978
     atom    8 type  2   force =    -0.18827817   -0.26150167   -0.19527978
     atom    9 type  3   force =    -0.15118188    2.01723636    2.20437328
     atom   10 type  3   force =     0.15118188    2.01723636   -2.20437328
     atom   11 type  3   force =     0.15118188   -2.01723636   -2.20437328
     atom   12 type  3   force =    -0.15118188   -2.01723636    2.20437328
     atom   13 type  3   force =     0.32252200   -3.04795898   -0.01908978
     atom   14 type  3   force =    -0.32252200   -3.04795898    0.01908978
     atom   15 type  3   force =    -0.32252200    3.04795898    0.01908978
     atom   16 type  3   force =     0.32252200    3.04795898   -0.01908978
     atom   17 type  3   force =     1.72511832    1.44022468   -1.10806173
     atom   18 type  3   force =    -1.72511832    1.44022468    1.10806173
     atom   19 type  3   force =    -1.72511832   -1.44022468    1.10806173
     atom   20 type  3   force =     1.72511832   -1.44022468   -1.10806173
     atom   21 type  3   force =    -1.95880577    0.42461295   -1.37177756
     atom   22 type  3   force =     1.95880577    0.42461295    1.37177756
     atom   23 type  3   force =     1.95880577   -0.42461295    1.37177756
     atom   24 type  3   force =    -1.95880577   -0.42461295   -1.37177756
     The local contribution  to forces
     atom    1 type  1   force =     0.03804398    0.06216006    0.11673562
     atom    2 type  1   force =    -0.03804398    0.06216006   -0.11673562
     atom    3 type  1   force =    -0.03804398   -0.06216006   -0.11673562
     atom    4 type  1   force =     0.03804398   -0.06216006    0.11673562
     atom    5 type  2   force =     0.18676181   -0.27777869    0.22720252
     atom    6 type  2   force =    -0.18676181   -0.27777869   -0.22720252
     atom    7 type  2   force =    -0.18676181    0.27777869   -0.22720252
     atom    8 type  2   force =     0.18676181    0.27777869    0.22720252
     atom    9 type  3   force =     0.10136598   -1.82825807   -1.99382830
     atom   10 type  3   force =    -0.10136598   -1.82825807    1.99382830
     atom   11 type  3   force =    -0.10136598    1.82825807    1.99382830
     atom   12 type  3   force =     0.10136598    1.82825807   -1.99382830
     atom   13 type  3   force =    -0.29264785    2.77476620    0.03833399
     atom   14 type  3   force =     0.29264785    2.77476620   -0.03833399
     atom   15 type  3   force =     0.29264785   -2.77476620   -0.03833399
     atom   16 type  3   force =    -0.29264785   -2.77476620    0.03833399
     atom   17 type  3   force =    -1.52601720   -1.31783192    1.03465371
     atom   18 type  3   force =     1.52601720   -1.31783192   -1.03465371
     atom   19 type  3   force =     1.52601720    1.31783192   -1.03465371
     atom   20 type  3   force =    -1.52601720    1.31783192    1.03465371
     atom   21 type  3   force =     1.77847021   -0.34985424    1.17809221
     atom   22 type  3   force =    -1.77847021   -0.34985424   -1.17809221
     atom   23 type  3   force =    -1.77847021    0.34985424   -1.17809221
     atom   24 type  3   force =     1.77847021    0.34985424    1.17809221
     The core correction contribution to forces
     atom    1 type  1   force =     0.00262626    0.00202865    0.00018924
     atom    2 type  1   force =    -0.00262626    0.00202865   -0.00018924
     atom    3 type  1   force =    -0.00262626   -0.00202865   -0.00018924
     atom    4 type  1   force =     0.00262626   -0.00202865    0.00018924
     atom    5 type  2   force =     0.00000000    0.00000000    0.00000000
     atom    6 type  2   force =     0.00000000    0.00000000    0.00000000
     atom    7 type  2   force =     0.00000000    0.00000000    0.00000000
     atom    8 type  2   force =     0.00000000    0.00000000    0.00000000
     atom    9 type  3   force =     0.00000000    0.00000000    0.00000000
     atom   10 type  3   force =     0.00000000    0.00000000    0.00000000
     atom   11 type  3   force =     0.00000000    0.00000000    0.00000000
     atom   12 type  3   force =     0.00000000    0.00000000    0.00000000
     atom   13 type  3   force =     0.00000000    0.00000000    0.00000000
     atom   14 type  3   force =     0.00000000    0.00000000    0.00000000
     atom   15 type  3   force =     0.00000000    0.00000000    0.00000000
     atom   16 type  3   force =     0.00000000    0.00000000    0.00000000
     atom   17 type  3   force =     0.00000000    0.00000000    0.00000000
     atom   18 type  3   force =     0.00000000    0.00000000    0.00000000
     atom   19 type  3   force =     0.00000000    0.00000000    0.00000000
     atom   20 type  3   force =     0.00000000    0.00000000    0.00000000
     atom   21 type  3   force =     0.00000000    0.00000000    0.00000000
     atom   22 type  3   force =     0.00000000    0.00000000    0.00000000
     atom   23 type  3   force =     0.00000000    0.00000000    0.00000000
     atom   24 type  3   force =     0.00000000    0.00000000    0.00000000
     The Hubbard contrib.    to forces
     atom    1 type  1   force =     0.00000000    0.00000000    0.00000000
     atom    2 type  1   force =     0.00000000    0.00000000    0.00000000
     atom    3 type  1   force =     0.00000000    0.00000000    0.00000000
     atom    4 type  1   force =     0.00000000    0.00000000    0.00000000
     atom    5 type  2   force =     0.00000000    0.00000000    0.00000000
     atom    6 type  2   force =     0.00000000    0.00000000    0.00000000
     atom    7 type  2   force =     0.00000000    0.00000000    0.00000000
     atom    8 type  2   force =     0.00000000    0.00000000    0.00000000
     atom    9 type  3   force =     0.00000000    0.00000000    0.00000000
     atom   10 type  3   force =     0.00000000    0.00000000    0.00000000
     atom   11 type  3   force =     0.00000000    0.00000000    0.00000000
     atom   12 type  3   force =     0.00000000    0.00000000    0.00000000
     atom   13 type  3   force =     0.00000000    0.00000000    0.00000000
     atom   14 type  3   force =     0.00000000    0.00000000    0.00000000
     atom   15 type  3   force =     0.00000000    0.00000000    0.00000000
     atom   16 type  3   force =     0.00000000    0.00000000    0.00000000
     atom   17 type  3   force =     0.00000000    0.00000000    0.00000000
     atom   18 type  3   force =     0.00000000    0.00000000    0.00000000
     atom   19 type  3   force =     0.00000000    0.00000000    0.00000000
     atom   20 type  3   force =     0.00000000    0.00000000    0.00000000
     atom   21 type  3   force =     0.00000000    0.00000000    0.00000000
     atom   22 type  3   force =     0.00000000    0.00000000    0.00000000
     atom   23 type  3   force =     0.00000000    0.00000000    0.00000000
     atom   24 type  3   force =     0.00000000    0.00000000    0.00000000
     The SCF correction term to forces
     atom    1 type  1   force =    -0.00000281   -0.00000165    0.00001874
     atom    2 type  1   force =     0.00000281   -0.00000165   -0.00001874
     atom    3 type  1   force =     0.00000281    0.00000165   -0.00001874
     atom    4 type  1   force =    -0.00000281    0.00000165    0.00001874
     atom    5 type  2   force =     0.00002272   -0.00006341    0.00007569
     atom    6 type  2   force =    -0.00002272   -0.00006341   -0.00007569
     atom    7 type  2   force =    -0.00002272    0.00006341   -0.00007569
     atom    8 type  2   force =     0.00002272    0.00006341    0.00007569
     atom    9 type  3   force =     0.00014777   -0.00051874    0.00000313
     atom   10 type  3   force =    -0.00014777   -0.00051874   -0.00000313
     atom   11 type  3   force =    -0.00014777    0.00051874   -0.00000313
     atom   12 type  3   force =     0.00014777    0.00051874    0.00000313
     atom   13 type  3   force =     0.00007340    0.00042810    0.00047549
     atom   14 type  3   force =    -0.00007340    0.00042810   -0.00047549
     atom   15 type  3   force =    -0.00007340   -0.00042810   -0.00047549
     atom   16 type  3   force =     0.00007340   -0.00042810    0.00047549
     atom   17 type  3   force =     0.00027965   -0.00009765    0.00006499
     atom   18 type  3   force =    -0.00027965   -0.00009765   -0.00006499
     atom   19 type  3   force =    -0.00027965    0.00009765   -0.00006499
     atom   20 type  3   force =     0.00027965    0.00009765    0.00006499
     atom   21 type  3   force =     0.00002279   -0.00007078    0.00009819
     atom   22 type  3   force =    -0.00002279   -0.00007078   -0.00009819
     atom   23 type  3   force =    -0.00002279    0.00007078   -0.00009819
     atom   24 type  3   force =     0.00002279    0.00007078    0.00009819

     Total force =     0.065718     Total SCF correction =     0.001815


     Computing stress (Cartesian axis) and pressure

          total   stress  (Ry/bohr**3)                   (kbar)     P=        1.54
   0.00001289   0.00000000   0.00000246            1.90        0.00        0.36
   0.00000000   0.00001019   0.00000000            0.00        1.50        0.00
   0.00000246   0.00000000   0.00000841            0.36        0.00        1.24

     kinetic stress (kbar)   4582.72      0.00     -9.90
                                0.00   4629.60      0.00
                               -9.90      0.00   4587.41

     local   stress (kbar)  -6129.72     -0.00    -91.97
                               -0.00  -5368.74     -0.00
                              -91.97     -0.00  -5830.17

     nonloc. stress (kbar)   5698.81      0.00      1.16
                                0.00   5697.99      0.00
                                1.16      0.00   5698.82

     hartree stress (kbar)   1461.77      0.00     24.13
                                0.00   1224.92     -0.00
                               24.13     -0.00   1351.20

     exc-cor stress (kbar)  -1155.32      0.00      0.25
                                0.00  -1156.46     -0.00
                                0.25     -0.00  -1155.86

     corecor stress (kbar)    -20.04     -0.00     -0.02
                               -0.00    -20.03      0.00
                               -0.02      0.00    -19.85

     ewald   stress (kbar)  -4436.33     -0.00     76.71
                               -0.00  -5005.77      0.00
                               76.71      0.00  -4630.32

     hubbard stress (kbar)      0.00      0.00      0.00
                                0.00      0.00      0.00
                                0.00      0.00      0.00

     DFT-D   stress (kbar)      0.00      0.00      0.00
                                0.00      0.00      0.00
                                0.00      0.00      0.00

     XDM     stress (kbar)      0.00      0.00      0.00
                                0.00      0.00      0.00
                                0.00      0.00      0.00

     dft-nl  stress (kbar)      0.00      0.00      0.00
                                0.00      0.00      0.00
                                0.00      0.00      0.00

     TS-vdW  stress (kbar)      0.00      0.00      0.00
                                0.00      0.00      0.00
                                0.00      0.00      0.00

     MDB     stress (kbar)      0.00      0.00      0.00
                                0.00      0.00      0.00
                                0.00      0.00      0.00

     3D-RISM stress (kbar)      0.00      0.00      0.00
                                0.00      0.00      0.00
                                0.00      0.00      0.00


     Writing all to output data dir ./out/LAC.save/ :
     XML data file, charge density, pseudopotentials, collected wavefunctions

     init_run     :    461.73s CPU    463.53s WALL (       1 calls)
     electrons    :   3448.78s CPU   3498.38s WALL (       1 calls)
     forces       :     55.20s CPU     55.40s WALL (       1 calls)
     stress       :     82.08s CPU     82.40s WALL (       1 calls)

     Called by init_run:
     wfcinit      :    459.19s CPU    460.76s WALL (       1 calls)
     wfcinit:atom :      0.11s CPU      0.11s WALL (      39 calls)
     wfcinit:wfcr :    457.86s CPU    459.42s WALL (      39 calls)
     potinit      :      1.02s CPU      1.16s WALL (       1 calls)
     hinit0       :      1.10s CPU      1.14s WALL (       1 calls)

     Called by electrons:
     c_bands      :   2815.66s CPU   2827.10s WALL (       8 calls)
     sum_band     :    628.80s CPU    631.20s WALL (       8 calls)
     v_of_rho     :      3.76s CPU      4.27s WALL (       8 calls)
     v_h          :      0.29s CPU      0.39s WALL (       8 calls)
     v_xc         :      4.36s CPU      4.91s WALL (      10 calls)
     mix_rho      :      0.40s CPU      0.44s WALL (       8 calls)

     Called by c_bands:
     init_us_2    :      1.32s CPU      1.41s WALL (     741 calls)
     cegterg      :   2811.93s CPU   2821.25s WALL (     312 calls)

     Called by sum_band:
     sum_band:wei :      0.00s CPU      0.00s WALL (       8 calls)
     sum_band:loo :    628.15s CPU    630.15s WALL (       8 calls)
     sum_band:buf :      0.30s CPU      0.46s WALL (     312 calls)
     sum_band:ini :      0.59s CPU      0.63s WALL (     312 calls)

     Called by *egterg:
     cdiaghg      :      5.10s CPU      5.16s WALL (     905 calls)
     cegterg:over :      7.26s CPU      7.32s WALL (     632 calls)
     cegterg:upda :      2.90s CPU      2.93s WALL (     632 calls)
     cegterg:last :      4.70s CPU      4.77s WALL (     588 calls)
     h_psi        :   3233.34s CPU   3243.93s WALL (     983 calls)
     g_psi        :      0.80s CPU      0.80s WALL (     632 calls)

     Called by h_psi:
     h_psi:calbec :     19.68s CPU     19.86s WALL (     983 calls)
     vloc_psi     :   3209.54s CPU   3219.82s WALL (     983 calls)
     add_vuspsi   :      3.61s CPU      3.67s WALL (     983 calls)

     General routines
     calbec       :    130.60s CPU    130.86s WALL (    1178 calls)
     fft          :      4.41s CPU      4.83s WALL (     119 calls)
     ffts         :      0.71s CPU      0.72s WALL (      16 calls)
     fftw         :   3756.49s CPU   3767.62s WALL (  137980 calls)
     interpolate  :      0.73s CPU      0.83s WALL (       8 calls)

     Parallel routines

     PWSCF        :      1h 7m CPU      1h18m WALL


   This run was terminated on:  20:15:18  10Nov2024            

=------------------------------------------------------------------------------=
   JOB DONE.
=------------------------------------------------------------------------------=
