 INFO
nunit      1    1    1
unit   cell
celltype   primcell
shape   parapipedal
 END_INFO
 DIM-GROUP
           3           1
 PRIMVEC
   -4.2600000920   -7.3785331590    0.0000000000
   -8.5200001840    0.0000000000    0.0000000000
   -4.2600000920   -2.4595110530   -6.9583352700
 CONVVEC
   -4.2600000920   -7.3785331590    0.0000000000
   -8.5200001840    0.0000000000    0.0000000000
   -4.2600000920   -2.4595110530   -6.9583352700
 PRIMCOORD
          36           1
  3     -8.5200001840    -4.9190221060    -3.4791676350     0.0000000000     0.0000000000     0.0000000000
  3      0.0000000000     0.0000000000     0.0000000000     0.0000000000     0.0000000000     0.0000000000
  8     -9.3390449270    -1.3792206480    -3.9543499360     0.0000967700     0.0001641000     0.0003944300
  8     -5.0449183960    -5.9796096120    -3.9543499360     0.0000937300    -0.0001658500     0.0003944300
  8    -11.1760372290    -7.3982360590    -3.9543499360    -0.0001905000     0.0000017600     0.0003944300
  8    -10.1239632310    -4.9387250060    -7.4335175710     0.0001905000     0.0000017600     0.0003944300
  8     -7.7350818800    -3.5200985590    -7.4335175710    -0.0000937300    -0.0001658500     0.0003944300
  8     -7.7009554410    -6.2982427540    -7.4335175710    -0.0000967700     0.0001641000     0.0003944300
  8     -7.7009554410    -8.4588235650    -3.0039853340    -0.0000967700    -0.0001641000    -0.0003944300
  8    -11.9950819720    -3.8584346000    -3.0039853340    -0.0000937300     0.0001658500    -0.0003944300
  8     -5.8639631390    -2.4398081540    -3.0039853340     0.0001905000    -0.0000017600    -0.0003944300
  8     -6.9160371370    -4.8993192070     0.4751823010    -0.0001905000    -0.0000017600    -0.0003944300
  8     -9.3049184880    -6.3179456540     0.4751823010     0.0000937300     0.0001658500    -0.0003944300
  8     -9.3390449270    -3.5398014580     0.4751823010     0.0000967700    -0.0001641000    -0.0003944300
  8     -7.6268093200    -3.7130477460    -1.8539353210     0.0000242400     0.0001341500     0.0002185100
  8     -7.9221906970    -6.2955349050    -1.8539353210     0.0001040600    -0.0000880700     0.0002185100
  8    -10.0110005360    -4.7484836680    -1.8539353210    -0.0001283000    -0.0000460800     0.0002185100
  8    -11.2889999240    -2.2889726150    -5.3331029560     0.0001283000    -0.0000460800     0.0002185100
  8     -4.8578095790    -3.8360238520    -5.3331029560    -0.0001040600    -0.0000880700     0.0002185100
  8     -9.4131910490    -8.6320698520    -5.3331029560    -0.0000242400     0.0001341500     0.0002185100
  8     -9.4131910490    -6.1249964670    -5.1043999500    -0.0000242400    -0.0001341500    -0.0002185100
  8     -9.1178096710    -3.5425093080    -5.1043999500    -0.0001040600     0.0000880700    -0.0002185100
  8     -7.0289998320    -5.0895605450    -5.1043999500     0.0001283000     0.0000460800    -0.0002185100
  8     -5.7510004440    -7.5490715980    -1.6252323140    -0.0001283000     0.0000460800    -0.0002185100
  8    -12.1821907890    -6.0020203610    -1.6252323140     0.0001040600     0.0000880700    -0.0002185100
  8     -7.6268093200    -1.2059743600    -1.6252323140     0.0000242400    -0.0001341500    -0.0002185100
 15     -9.7608849740    -2.1492745010    -5.2187514530    -0.0000286500    -0.0000496200     0.0000000000
 15     -5.5008848830    -5.2292586580    -5.2187514530    -0.0000286500     0.0000496200     0.0000000000
 15    -10.2982306950    -7.3785331590    -5.2187514530     0.0000573000     0.0000000000     0.0000000000
 15     -6.7417696730    -2.4595110530    -1.7395838180    -0.0000573000     0.0000000000     0.0000000000
 15     -7.2791153940    -7.6887697110    -1.7395838180     0.0000286500     0.0000496200     0.0000000000
 15    -11.5391154860    -4.6087855540    -1.7395838180     0.0000286500    -0.0000496200     0.0000000000
 22     -8.5200001840    -4.9190221060    -6.4068970860     0.0000000000     0.0000000000    -0.0000300100
 22    -12.7800002760    -7.3785331590    -2.9277294510     0.0000000000     0.0000000000    -0.0000300100
 22     -8.5200001850    -4.9190221060    -0.5514381850     0.0000000000     0.0000000000     0.0000300100
 22     -4.2600000930    -2.4595110530    -4.0306058200     0.0000000000     0.0000000000     0.0000300100
 CONVCOORD
          36           1
  3     -8.5200001840    -4.9190221060    -3.4791676350
  3     -0.0000000000     0.0000000000     0.0000000000
  8     -9.3390449270    -1.3792206480    -3.9543499360
  8     -5.0449183960    -5.9796096120    -3.9543499360
  8    -11.1760372290    -7.3982360590    -3.9543499360
  8     -5.8639631390    -2.4792139530    -0.4751823010
  8     -3.4750817880    -1.0605875060    -0.4751823010
  8     -3.4409553490    -3.8387317010    -0.4751823010
  8     -3.4409553490    -1.0802904060    -3.0039853340
  8     -3.4750817880    -3.8584346000    -3.0039853340
  8     -5.8639631390    -2.4398081540    -3.0039853340
  8     -6.9160371370    -4.8993192070     0.4751823010
  8     -9.3049184880    -6.3179456540     0.4751823010
  8     -9.3390449270    -3.5398014580     0.4751823010
  8     -7.6268093200    -3.7130477460    -1.8539353210
  8     -7.9221906970    -6.2955349050    -1.8539353210
  8    -10.0110005360    -4.7484836680    -1.8539353210
  8    -11.2889999240    -2.2889726150    -5.3331029560
  8     -4.8578095790    -3.8360238520    -5.3331029560
  8     -9.4131910490    -8.6320698520    -5.3331029560
  8     -9.4131910490    -6.1249964670    -5.1043999500
  8     -9.1178096710    -3.5425093080    -5.1043999500
  8     -7.0289998320    -5.0895605450    -5.1043999500
  8     -5.7510004440    -7.5490715980    -1.6252323140
  8    -12.1821907890    -6.0020203610    -1.6252323140
  8     -7.6268093200    -1.2059743600    -1.6252323140
 15     -9.7608849740    -2.1492745010    -5.2187514530
 15     -5.5008848830    -5.2292586580    -5.2187514530
 15    -10.2982306950    -7.3785331590    -5.2187514530
 15     -6.7417696730    -2.4595110530    -1.7395838180
 15     -7.2791153940    -7.6887697110    -1.7395838180
 15    -11.5391154860    -4.6087855540    -1.7395838180
 22     -8.5200001840    -4.9190221060    -6.4068970860
 22    -12.7800002760    -7.3785331590    -2.9277294510
 22     -8.5200001850    -4.9190221060    -0.5514381850
 22     -4.2600000930    -2.4595110530    -4.0306058200
 RECIP-PRIMVEC
    0.0000000000   -0.1355282925    0.0479041783

   -0.1173708895    0.0677641462    0.0479041783

   -0.0000000000    0.0000000000   -0.1437125349

 RECIP-CONVVEC
    0.0000000000   -0.1355282925    0.0479041783

   -0.1173708895    0.0677641462    0.0479041783

   -0.0000000000    0.0000000000   -0.1437125349

 WIGNER-SEITZ-PRIMCELL
           4
  0.4260000E+01 -0.2459510E+01  0.3479166E+01   0.1000000E+01 -0.6014546E-16 -0.1701608E-15
  0.4260000E+01 -0.2459510E+01 -0.1740477E+01   0.1000000E+01 -0.6014546E-16 -0.1701608E-15
  0.4260000E+01  0.2459510E+01 -0.3479166E+01   0.1000000E+01 -0.6014546E-16 -0.1701608E-15
  0.4260000E+01  0.2459510E+01  0.1740477E+01   0.1000000E+01 -0.6014546E-16 -0.1701608E-15
           6
  0.4259998E+01 -0.2459511E+01  0.3479168E+01   0.4999145E+00  0.2886257E+00  0.8165664E+00
  0.4260000E+01 -0.2459510E+01  0.3479166E+01   0.4999145E+00  0.2886257E+00  0.8165664E+00
  0.4260000E+01  0.2459510E+01  0.1740477E+01   0.4999145E+00  0.2886257E+00  0.8165664E+00
  0.1986426E-05  0.4919022E+01  0.3479168E+01   0.4999145E+00  0.2886257E+00  0.8165664E+00
  0.1039573E-14  0.4919021E+01  0.3479169E+01   0.4999145E+00  0.2886257E+00  0.8165664E+00
 -0.0000000E+00  0.1146864E-05  0.5217859E+01   0.4999145E+00  0.2886257E+00  0.8165664E+00
           6
  0.1986426E-05  0.4919022E+01  0.3479168E+01   0.5000002E+00  0.8660253E+00  0.0000000E+00
  0.4260000E+01  0.2459510E+01  0.1740477E+01   0.5000002E+00  0.8660253E+00  0.0000000E+00
  0.4260000E+01  0.2459510E+01 -0.3479166E+01   0.5000002E+00  0.8660253E+00  0.0000000E+00
  0.4259998E+01  0.2459511E+01 -0.3479168E+01   0.5000002E+00  0.8660253E+00  0.0000000E+00
  0.0000000E+00  0.4919023E+01 -0.1740477E+01   0.5000002E+00  0.8660253E+00  0.0000000E+00
 -0.0000000E+00  0.4919023E+01  0.3479166E+01   0.5000002E+00  0.8660253E+00  0.0000000E+00
           6
  0.0000000E+00 -0.4919023E+01  0.1740477E+01   0.5000002E+00 -0.8660253E+00 -0.0000000E+00
 -0.0000000E+00 -0.4919023E+01 -0.3479166E+01   0.5000002E+00 -0.8660253E+00 -0.0000000E+00
  0.1986426E-05 -0.4919022E+01 -0.3479168E+01   0.5000002E+00 -0.8660253E+00 -0.0000000E+00
  0.4260000E+01 -0.2459510E+01 -0.1740477E+01   0.5000002E+00 -0.8660253E+00 -0.0000000E+00
  0.4260000E+01 -0.2459510E+01  0.3479166E+01   0.5000002E+00 -0.8660253E+00 -0.0000000E+00
  0.4259998E+01 -0.2459511E+01  0.3479168E+01   0.5000002E+00 -0.8660253E+00 -0.0000000E+00
           6
  0.4260000E+01  0.2459510E+01 -0.3479166E+01   0.4999145E+00 -0.2886257E+00 -0.8165664E+00
  0.4260000E+01 -0.2459510E+01 -0.1740477E+01   0.4999145E+00 -0.2886257E+00 -0.8165664E+00
  0.1986426E-05 -0.4919022E+01 -0.3479168E+01   0.4999145E+00 -0.2886257E+00 -0.8165664E+00
  0.1039573E-14 -0.4919021E+01 -0.3479169E+01   0.4999145E+00 -0.2886257E+00 -0.8165664E+00
 -0.0000000E+00 -0.1146864E-05 -0.5217859E+01   0.4999145E+00 -0.2886257E+00 -0.8165664E+00
  0.4259998E+01  0.2459511E+01 -0.3479168E+01   0.4999145E+00 -0.2886257E+00 -0.8165664E+00
           6
 -0.1986426E-05  0.4919022E+01  0.3479168E+01  -0.4999145E+00  0.2886257E+00  0.8165664E+00
 -0.4260000E+01  0.2459510E+01  0.1740477E+01  -0.4999145E+00  0.2886257E+00  0.8165664E+00
 -0.4260000E+01 -0.2459510E+01  0.3479166E+01  -0.4999145E+00  0.2886257E+00  0.8165664E+00
 -0.4259998E+01 -0.2459511E+01  0.3479168E+01  -0.4999145E+00  0.2886257E+00  0.8165664E+00
 -0.0000000E+00  0.1146864E-05  0.5217859E+01  -0.4999145E+00  0.2886257E+00  0.8165664E+00
  0.1039573E-14  0.4919021E+01  0.3479169E+01  -0.4999145E+00  0.2886257E+00  0.8165664E+00
           4
 -0.0000000E+00  0.1146864E-05  0.5217859E+01   0.0000000E+00 -0.5772514E+00  0.8165665E+00
 -0.4259998E+01 -0.2459511E+01  0.3479168E+01   0.0000000E+00 -0.5772514E+00  0.8165665E+00
  0.0000000E+00 -0.4919023E+01  0.1740477E+01   0.0000000E+00 -0.5772514E+00  0.8165665E+00
  0.4259998E+01 -0.2459511E+01  0.3479168E+01   0.0000000E+00 -0.5772514E+00  0.8165665E+00
           6
 -0.1986426E-05  0.4919022E+01  0.3479168E+01  -0.5000002E+00  0.8660253E+00 -0.7074857E-16
 -0.0000000E+00  0.4919023E+01  0.3479166E+01  -0.5000002E+00  0.8660253E+00 -0.7074857E-16
  0.0000000E+00  0.4919023E+01 -0.1740477E+01  -0.5000002E+00  0.8660253E+00 -0.7074857E-16
 -0.4259998E+01  0.2459511E+01 -0.3479168E+01  -0.5000002E+00  0.8660253E+00 -0.7074857E-16
 -0.4260000E+01  0.2459510E+01 -0.3479166E+01  -0.5000002E+00  0.8660253E+00 -0.7074857E-16
 -0.4260000E+01  0.2459510E+01  0.1740477E+01  -0.5000002E+00  0.8660253E+00 -0.7074857E-16
           4
  0.4259998E+01  0.2459511E+01 -0.3479168E+01  -0.0000000E+00  0.5772514E+00 -0.8165665E+00
 -0.0000000E+00 -0.1146864E-05 -0.5217859E+01  -0.0000000E+00  0.5772514E+00 -0.8165665E+00
 -0.4259998E+01  0.2459511E+01 -0.3479168E+01  -0.0000000E+00  0.5772514E+00 -0.8165665E+00
  0.0000000E+00  0.4919023E+01 -0.1740477E+01  -0.0000000E+00  0.5772514E+00 -0.8165665E+00
           6
 -0.4260000E+01 -0.2459510E+01  0.3479166E+01  -0.5000002E+00 -0.8660253E+00 -0.6918479E-16
 -0.4260000E+01 -0.2459510E+01 -0.1740477E+01  -0.5000002E+00 -0.8660253E+00 -0.6918479E-16
 -0.1986426E-05 -0.4919022E+01 -0.3479168E+01  -0.5000002E+00 -0.8660253E+00 -0.6918479E-16
 -0.0000000E+00 -0.4919023E+01 -0.3479166E+01  -0.5000002E+00 -0.8660253E+00 -0.6918479E-16
  0.0000000E+00 -0.4919023E+01  0.1740477E+01  -0.5000002E+00 -0.8660253E+00 -0.6918479E-16
 -0.4259998E+01 -0.2459511E+01  0.3479168E+01  -0.5000002E+00 -0.8660253E+00 -0.6918479E-16
           6
 -0.4260000E+01 -0.2459510E+01 -0.1740477E+01  -0.4999145E+00 -0.2886257E+00 -0.8165664E+00
 -0.4260000E+01  0.2459510E+01 -0.3479166E+01  -0.4999145E+00 -0.2886257E+00 -0.8165664E+00
 -0.4259998E+01  0.2459511E+01 -0.3479168E+01  -0.4999145E+00 -0.2886257E+00 -0.8165664E+00
 -0.0000000E+00 -0.1146864E-05 -0.5217859E+01  -0.4999145E+00 -0.2886257E+00 -0.8165664E+00
  0.1039573E-14 -0.4919021E+01 -0.3479169E+01  -0.4999145E+00 -0.2886257E+00 -0.8165664E+00
 -0.1986426E-05 -0.4919022E+01 -0.3479168E+01  -0.4999145E+00 -0.2886257E+00 -0.8165664E+00
           4
 -0.4260000E+01  0.2459510E+01  0.1740477E+01  -0.1000000E+01 -0.6014546E-16 -0.1701608E-15
 -0.4260000E+01  0.2459510E+01 -0.3479166E+01  -0.1000000E+01 -0.6014546E-16 -0.1701608E-15
 -0.4260000E+01 -0.2459510E+01 -0.1740477E+01  -0.1000000E+01 -0.6014546E-16 -0.1701608E-15
 -0.4260000E+01 -0.2459510E+01  0.3479166E+01  -0.1000000E+01 -0.6014546E-16 -0.1701608E-15
 WIGNER-SEITZ-PRIMCELL_END
 WIGNER-SEITZ-CONVCELL
           4
  0.4260000E+01 -0.2459510E+01  0.3479166E+01   0.1000000E+01 -0.6014546E-16 -0.1701608E-15
  0.4260000E+01 -0.2459510E+01 -0.1740477E+01   0.1000000E+01 -0.6014546E-16 -0.1701608E-15
  0.4260000E+01  0.2459510E+01 -0.3479166E+01   0.1000000E+01 -0.6014546E-16 -0.1701608E-15
  0.4260000E+01  0.2459510E+01  0.1740477E+01   0.1000000E+01 -0.6014546E-16 -0.1701608E-15
           6
  0.4259998E+01 -0.2459511E+01  0.3479168E+01   0.4999145E+00  0.2886257E+00  0.8165664E+00
  0.4260000E+01 -0.2459510E+01  0.3479166E+01   0.4999145E+00  0.2886257E+00  0.8165664E+00
  0.4260000E+01  0.2459510E+01  0.1740477E+01   0.4999145E+00  0.2886257E+00  0.8165664E+00
  0.1986426E-05  0.4919022E+01  0.3479168E+01   0.4999145E+00  0.2886257E+00  0.8165664E+00
  0.1039573E-14  0.4919021E+01  0.3479169E+01   0.4999145E+00  0.2886257E+00  0.8165664E+00
 -0.0000000E+00  0.1146864E-05  0.5217859E+01   0.4999145E+00  0.2886257E+00  0.8165664E+00
           6
  0.1986426E-05  0.4919022E+01  0.3479168E+01   0.5000002E+00  0.8660253E+00  0.0000000E+00
  0.4260000E+01  0.2459510E+01  0.1740477E+01   0.5000002E+00  0.8660253E+00  0.0000000E+00
  0.4260000E+01  0.2459510E+01 -0.3479166E+01   0.5000002E+00  0.8660253E+00  0.0000000E+00
  0.4259998E+01  0.2459511E+01 -0.3479168E+01   0.5000002E+00  0.8660253E+00  0.0000000E+00
  0.0000000E+00  0.4919023E+01 -0.1740477E+01   0.5000002E+00  0.8660253E+00  0.0000000E+00
 -0.0000000E+00  0.4919023E+01  0.3479166E+01   0.5000002E+00  0.8660253E+00  0.0000000E+00
           6
  0.0000000E+00 -0.4919023E+01  0.1740477E+01   0.5000002E+00 -0.8660253E+00 -0.0000000E+00
 -0.0000000E+00 -0.4919023E+01 -0.3479166E+01   0.5000002E+00 -0.8660253E+00 -0.0000000E+00
  0.1986426E-05 -0.4919022E+01 -0.3479168E+01   0.5000002E+00 -0.8660253E+00 -0.0000000E+00
  0.4260000E+01 -0.2459510E+01 -0.1740477E+01   0.5000002E+00 -0.8660253E+00 -0.0000000E+00
  0.4260000E+01 -0.2459510E+01  0.3479166E+01   0.5000002E+00 -0.8660253E+00 -0.0000000E+00
  0.4259998E+01 -0.2459511E+01  0.3479168E+01   0.5000002E+00 -0.8660253E+00 -0.0000000E+00
           6
  0.4260000E+01  0.2459510E+01 -0.3479166E+01   0.4999145E+00 -0.2886257E+00 -0.8165664E+00
  0.4260000E+01 -0.2459510E+01 -0.1740477E+01   0.4999145E+00 -0.2886257E+00 -0.8165664E+00
  0.1986426E-05 -0.4919022E+01 -0.3479168E+01   0.4999145E+00 -0.2886257E+00 -0.8165664E+00
  0.1039573E-14 -0.4919021E+01 -0.3479169E+01   0.4999145E+00 -0.2886257E+00 -0.8165664E+00
 -0.0000000E+00 -0.1146864E-05 -0.5217859E+01   0.4999145E+00 -0.2886257E+00 -0.8165664E+00
  0.4259998E+01  0.2459511E+01 -0.3479168E+01   0.4999145E+00 -0.2886257E+00 -0.8165664E+00
           6
 -0.1986426E-05  0.4919022E+01  0.3479168E+01  -0.4999145E+00  0.2886257E+00  0.8165664E+00
 -0.4260000E+01  0.2459510E+01  0.1740477E+01  -0.4999145E+00  0.2886257E+00  0.8165664E+00
 -0.4260000E+01 -0.2459510E+01  0.3479166E+01  -0.4999145E+00  0.2886257E+00  0.8165664E+00
 -0.4259998E+01 -0.2459511E+01  0.3479168E+01  -0.4999145E+00  0.2886257E+00  0.8165664E+00
 -0.0000000E+00  0.1146864E-05  0.5217859E+01  -0.4999145E+00  0.2886257E+00  0.8165664E+00
  0.1039573E-14  0.4919021E+01  0.3479169E+01  -0.4999145E+00  0.2886257E+00  0.8165664E+00
           4
 -0.0000000E+00  0.1146864E-05  0.5217859E+01   0.0000000E+00 -0.5772514E+00  0.8165665E+00
 -0.4259998E+01 -0.2459511E+01  0.3479168E+01   0.0000000E+00 -0.5772514E+00  0.8165665E+00
  0.0000000E+00 -0.4919023E+01  0.1740477E+01   0.0000000E+00 -0.5772514E+00  0.8165665E+00
  0.4259998E+01 -0.2459511E+01  0.3479168E+01   0.0000000E+00 -0.5772514E+00  0.8165665E+00
           6
 -0.1986426E-05  0.4919022E+01  0.3479168E+01  -0.5000002E+00  0.8660253E+00 -0.7074857E-16
 -0.0000000E+00  0.4919023E+01  0.3479166E+01  -0.5000002E+00  0.8660253E+00 -0.7074857E-16
  0.0000000E+00  0.4919023E+01 -0.1740477E+01  -0.5000002E+00  0.8660253E+00 -0.7074857E-16
 -0.4259998E+01  0.2459511E+01 -0.3479168E+01  -0.5000002E+00  0.8660253E+00 -0.7074857E-16
 -0.4260000E+01  0.2459510E+01 -0.3479166E+01  -0.5000002E+00  0.8660253E+00 -0.7074857E-16
 -0.4260000E+01  0.2459510E+01  0.1740477E+01  -0.5000002E+00  0.8660253E+00 -0.7074857E-16
           4
  0.4259998E+01  0.2459511E+01 -0.3479168E+01  -0.0000000E+00  0.5772514E+00 -0.8165665E+00
 -0.0000000E+00 -0.1146864E-05 -0.5217859E+01  -0.0000000E+00  0.5772514E+00 -0.8165665E+00
 -0.4259998E+01  0.2459511E+01 -0.3479168E+01  -0.0000000E+00  0.5772514E+00 -0.8165665E+00
  0.0000000E+00  0.4919023E+01 -0.1740477E+01  -0.0000000E+00  0.5772514E+00 -0.8165665E+00
           6
 -0.4260000E+01 -0.2459510E+01  0.3479166E+01  -0.5000002E+00 -0.8660253E+00 -0.6918479E-16
 -0.4260000E+01 -0.2459510E+01 -0.1740477E+01  -0.5000002E+00 -0.8660253E+00 -0.6918479E-16
 -0.1986426E-05 -0.4919022E+01 -0.3479168E+01  -0.5000002E+00 -0.8660253E+00 -0.6918479E-16
 -0.0000000E+00 -0.4919023E+01 -0.3479166E+01  -0.5000002E+00 -0.8660253E+00 -0.6918479E-16
  0.0000000E+00 -0.4919023E+01  0.1740477E+01  -0.5000002E+00 -0.8660253E+00 -0.6918479E-16
 -0.4259998E+01 -0.2459511E+01  0.3479168E+01  -0.5000002E+00 -0.8660253E+00 -0.6918479E-16
           6
 -0.4260000E+01 -0.2459510E+01 -0.1740477E+01  -0.4999145E+00 -0.2886257E+00 -0.8165664E+00
 -0.4260000E+01  0.2459510E+01 -0.3479166E+01  -0.4999145E+00 -0.2886257E+00 -0.8165664E+00
 -0.4259998E+01  0.2459511E+01 -0.3479168E+01  -0.4999145E+00 -0.2886257E+00 -0.8165664E+00
 -0.0000000E+00 -0.1146864E-05 -0.5217859E+01  -0.4999145E+00 -0.2886257E+00 -0.8165664E+00
  0.1039573E-14 -0.4919021E+01 -0.3479169E+01  -0.4999145E+00 -0.2886257E+00 -0.8165664E+00
 -0.1986426E-05 -0.4919022E+01 -0.3479168E+01  -0.4999145E+00 -0.2886257E+00 -0.8165664E+00
           4
 -0.4260000E+01  0.2459510E+01  0.1740477E+01  -0.1000000E+01 -0.6014546E-16 -0.1701608E-15
 -0.4260000E+01  0.2459510E+01 -0.3479166E+01  -0.1000000E+01 -0.6014546E-16 -0.1701608E-15
 -0.4260000E+01 -0.2459510E+01 -0.1740477E+01  -0.1000000E+01 -0.6014546E-16 -0.1701608E-15
 -0.4260000E+01 -0.2459510E+01  0.3479166E+01  -0.1000000E+01 -0.6014546E-16 -0.1701608E-15
 WIGNER-SEITZ-CONVCELL_END
 BRILLOUIN-ZONE-PRIMCELL
           6
  0.8802317E-01 -0.1693233E-01  0.2395209E-01   0.8165198E+00  0.4714181E+00  0.3332573E+00
  0.8802317E-01  0.1693233E-01 -0.2395209E-01   0.8165198E+00  0.4714181E+00  0.3332573E+00
  0.5867540E-01  0.6776415E-01 -0.2395209E-01   0.8165198E+00  0.4714181E+00  0.3332573E+00
  0.2934772E-01  0.8469648E-01  0.2395209E-01   0.8165198E+00  0.4714181E+00  0.3332573E+00
  0.2934772E-01  0.5083181E-01  0.7185627E-01   0.8165198E+00  0.4714181E+00  0.3332573E+00
  0.5869549E-01 -0.1185674E-16  0.7185627E-01   0.8165198E+00  0.4714181E+00  0.3332573E+00
           4
  0.5867540E-01  0.6776415E-01 -0.2395209E-01   0.7071672E+00  0.4082833E+00 -0.5772515E+00
  0.8802317E-01  0.1693233E-01 -0.2395209E-01   0.7071672E+00  0.4082833E+00 -0.5772515E+00
  0.5869549E-01  0.1185674E-16 -0.7185627E-01   0.7071672E+00  0.4082833E+00 -0.5772515E+00
  0.2934772E-01  0.5083181E-01 -0.7185627E-01   0.7071672E+00  0.4082833E+00 -0.5772515E+00
           6
  0.5867540E-01  0.6776415E-01 -0.2395209E-01  -0.0000000E+00  0.9428359E+00 -0.3332572E+00
  0.2934772E-01  0.5083181E-01 -0.7185627E-01  -0.0000000E+00  0.9428359E+00 -0.3332572E+00
 -0.2934772E-01  0.5083181E-01 -0.7185627E-01  -0.0000000E+00  0.9428359E+00 -0.3332572E+00
 -0.5867540E-01  0.6776415E-01 -0.2395209E-01  -0.0000000E+00  0.9428359E+00 -0.3332572E+00
 -0.2934772E-01  0.8469648E-01  0.2395209E-01  -0.0000000E+00  0.9428359E+00 -0.3332572E+00
  0.2934772E-01  0.8469648E-01  0.2395209E-01  -0.0000000E+00  0.9428359E+00 -0.3332572E+00
           6
  0.8802317E-01 -0.1693233E-01  0.2395209E-01   0.8165198E+00 -0.4714181E+00 -0.3332573E+00
  0.5867540E-01 -0.6776415E-01  0.2395209E-01   0.8165198E+00 -0.4714181E+00 -0.3332573E+00
  0.2934772E-01 -0.8469648E-01 -0.2395209E-01   0.8165198E+00 -0.4714181E+00 -0.3332573E+00
  0.2934772E-01 -0.5083181E-01 -0.7185627E-01   0.8165198E+00 -0.4714181E+00 -0.3332573E+00
  0.5869549E-01  0.1185674E-16 -0.7185627E-01   0.8165198E+00 -0.4714181E+00 -0.3332573E+00
  0.8802317E-01  0.1693233E-01 -0.2395209E-01   0.8165198E+00 -0.4714181E+00 -0.3332573E+00
           4
  0.2934772E-01  0.5083181E-01  0.7185627E-01  -0.0000000E+00  0.8165665E+00  0.5772514E+00
  0.2934772E-01  0.8469648E-01  0.2395209E-01  -0.0000000E+00  0.8165665E+00  0.5772514E+00
 -0.2934772E-01  0.8469648E-01  0.2395209E-01  -0.0000000E+00  0.8165665E+00  0.5772514E+00
 -0.2934772E-01  0.5083181E-01  0.7185627E-01  -0.0000000E+00  0.8165665E+00  0.5772514E+00
           6
  0.2934772E-01 -0.5083181E-01  0.7185627E-01  -0.1453548E-15  0.1453548E-15  0.1000000E+01
  0.5869549E-01 -0.1185674E-16  0.7185627E-01  -0.1453548E-15  0.1453548E-15  0.1000000E+01
  0.2934772E-01  0.5083181E-01  0.7185627E-01  -0.1453548E-15  0.1453548E-15  0.1000000E+01
 -0.2934772E-01  0.5083181E-01  0.7185627E-01  -0.1453548E-15  0.1453548E-15  0.1000000E+01
 -0.5869549E-01  0.5928370E-17  0.7185627E-01  -0.1453548E-15  0.1453548E-15  0.1000000E+01
 -0.2934772E-01 -0.5083181E-01  0.7185627E-01  -0.1453548E-15  0.1453548E-15  0.1000000E+01
           4
  0.5869549E-01 -0.1185674E-16  0.7185627E-01   0.7071672E+00 -0.4082833E+00  0.5772515E+00
  0.2934772E-01 -0.5083181E-01  0.7185627E-01   0.7071672E+00 -0.4082833E+00  0.5772515E+00
  0.5867540E-01 -0.6776415E-01  0.2395209E-01   0.7071672E+00 -0.4082833E+00  0.5772515E+00
  0.8802317E-01 -0.1693233E-01  0.2395209E-01   0.7071672E+00 -0.4082833E+00  0.5772515E+00
           6
 -0.2934772E-01 -0.5083181E-01 -0.7185627E-01  -0.1453548E-15  0.1453548E-15 -0.1000000E+01
 -0.5869549E-01  0.2964185E-17 -0.7185627E-01  -0.1453548E-15  0.1453548E-15 -0.1000000E+01
 -0.2934772E-01  0.5083181E-01 -0.7185627E-01  -0.1453548E-15  0.1453548E-15 -0.1000000E+01
  0.2934772E-01  0.5083181E-01 -0.7185627E-01  -0.1453548E-15  0.1453548E-15 -0.1000000E+01
  0.5869549E-01  0.1185674E-16 -0.7185627E-01  -0.1453548E-15  0.1453548E-15 -0.1000000E+01
  0.2934772E-01 -0.5083181E-01 -0.7185627E-01  -0.1453548E-15  0.1453548E-15 -0.1000000E+01
           6
 -0.2934772E-01  0.8469648E-01  0.2395209E-01  -0.8165198E+00  0.4714181E+00  0.3332573E+00
 -0.5867540E-01  0.6776415E-01 -0.2395209E-01  -0.8165198E+00  0.4714181E+00  0.3332573E+00
 -0.8802317E-01  0.1693233E-01 -0.2395209E-01  -0.8165198E+00  0.4714181E+00  0.3332573E+00
 -0.8802317E-01 -0.1693233E-01  0.2395209E-01  -0.8165198E+00  0.4714181E+00  0.3332573E+00
 -0.5869549E-01  0.5928370E-17  0.7185627E-01  -0.8165198E+00  0.4714181E+00  0.3332573E+00
 -0.2934772E-01  0.5083181E-01  0.7185627E-01  -0.8165198E+00  0.4714181E+00  0.3332573E+00
           4
 -0.2934772E-01  0.5083181E-01 -0.7185627E-01  -0.7071672E+00  0.4082833E+00 -0.5772515E+00
 -0.5869549E-01  0.2964185E-17 -0.7185627E-01  -0.7071672E+00  0.4082833E+00 -0.5772515E+00
 -0.8802317E-01  0.1693233E-01 -0.2395209E-01  -0.7071672E+00  0.4082833E+00 -0.5772515E+00
 -0.5867540E-01  0.6776415E-01 -0.2395209E-01  -0.7071672E+00  0.4082833E+00 -0.5772515E+00
           6
  0.2934772E-01 -0.5083181E-01  0.7185627E-01   0.0000000E+00 -0.9428359E+00  0.3332572E+00
 -0.2934772E-01 -0.5083181E-01  0.7185627E-01   0.0000000E+00 -0.9428359E+00  0.3332572E+00
 -0.5867540E-01 -0.6776415E-01  0.2395209E-01   0.0000000E+00 -0.9428359E+00  0.3332572E+00
 -0.2934772E-01 -0.8469648E-01 -0.2395209E-01   0.0000000E+00 -0.9428359E+00  0.3332572E+00
  0.2934772E-01 -0.8469648E-01 -0.2395209E-01   0.0000000E+00 -0.9428359E+00  0.3332572E+00
  0.5867540E-01 -0.6776415E-01  0.2395209E-01   0.0000000E+00 -0.9428359E+00  0.3332572E+00
           4
 -0.2934772E-01 -0.8469648E-01 -0.2395209E-01   0.0000000E+00 -0.8165665E+00 -0.5772514E+00
 -0.2934772E-01 -0.5083181E-01 -0.7185627E-01   0.0000000E+00 -0.8165665E+00 -0.5772514E+00
  0.2934772E-01 -0.5083181E-01 -0.7185627E-01   0.0000000E+00 -0.8165665E+00 -0.5772514E+00
  0.2934772E-01 -0.8469648E-01 -0.2395209E-01   0.0000000E+00 -0.8165665E+00 -0.5772514E+00
           4
 -0.8802317E-01 -0.1693233E-01  0.2395209E-01  -0.7071672E+00 -0.4082833E+00  0.5772515E+00
 -0.5867540E-01 -0.6776415E-01  0.2395209E-01  -0.7071672E+00 -0.4082833E+00  0.5772515E+00
 -0.2934772E-01 -0.5083181E-01  0.7185627E-01  -0.7071672E+00 -0.4082833E+00  0.5772515E+00
 -0.5869549E-01  0.5928370E-17  0.7185627E-01  -0.7071672E+00 -0.4082833E+00  0.5772515E+00
           6
 -0.5867540E-01 -0.6776415E-01  0.2395209E-01  -0.8165198E+00 -0.4714181E+00 -0.3332573E+00
 -0.8802317E-01 -0.1693233E-01  0.2395209E-01  -0.8165198E+00 -0.4714181E+00 -0.3332573E+00
 -0.8802317E-01  0.1693233E-01 -0.2395209E-01  -0.8165198E+00 -0.4714181E+00 -0.3332573E+00
 -0.5869549E-01  0.2964185E-17 -0.7185627E-01  -0.8165198E+00 -0.4714181E+00 -0.3332573E+00
 -0.2934772E-01 -0.5083181E-01 -0.7185627E-01  -0.8165198E+00 -0.4714181E+00 -0.3332573E+00
 -0.2934772E-01 -0.8469648E-01 -0.2395209E-01  -0.8165198E+00 -0.4714181E+00 -0.3332573E+00
 BRILLOUIN-ZONE-PRIMCELL_END
 BRILLOUIN-ZONE-CONVCELL
           6
  0.8802317E-01 -0.1693233E-01  0.2395209E-01   0.8165198E+00  0.4714181E+00  0.3332573E+00
  0.8802317E-01  0.1693233E-01 -0.2395209E-01   0.8165198E+00  0.4714181E+00  0.3332573E+00
  0.5867540E-01  0.6776415E-01 -0.2395209E-01   0.8165198E+00  0.4714181E+00  0.3332573E+00
  0.2934772E-01  0.8469648E-01  0.2395209E-01   0.8165198E+00  0.4714181E+00  0.3332573E+00
  0.2934772E-01  0.5083181E-01  0.7185627E-01   0.8165198E+00  0.4714181E+00  0.3332573E+00
  0.5869549E-01 -0.1185674E-16  0.7185627E-01   0.8165198E+00  0.4714181E+00  0.3332573E+00
           4
  0.5867540E-01  0.6776415E-01 -0.2395209E-01   0.7071672E+00  0.4082833E+00 -0.5772515E+00
  0.8802317E-01  0.1693233E-01 -0.2395209E-01   0.7071672E+00  0.4082833E+00 -0.5772515E+00
  0.5869549E-01  0.1185674E-16 -0.7185627E-01   0.7071672E+00  0.4082833E+00 -0.5772515E+00
  0.2934772E-01  0.5083181E-01 -0.7185627E-01   0.7071672E+00  0.4082833E+00 -0.5772515E+00
           6
  0.5867540E-01  0.6776415E-01 -0.2395209E-01  -0.0000000E+00  0.9428359E+00 -0.3332572E+00
  0.2934772E-01  0.5083181E-01 -0.7185627E-01  -0.0000000E+00  0.9428359E+00 -0.3332572E+00
 -0.2934772E-01  0.5083181E-01 -0.7185627E-01  -0.0000000E+00  0.9428359E+00 -0.3332572E+00
 -0.5867540E-01  0.6776415E-01 -0.2395209E-01  -0.0000000E+00  0.9428359E+00 -0.3332572E+00
 -0.2934772E-01  0.8469648E-01  0.2395209E-01  -0.0000000E+00  0.9428359E+00 -0.3332572E+00
  0.2934772E-01  0.8469648E-01  0.2395209E-01  -0.0000000E+00  0.9428359E+00 -0.3332572E+00
           6
  0.8802317E-01 -0.1693233E-01  0.2395209E-01   0.8165198E+00 -0.4714181E+00 -0.3332573E+00
  0.5867540E-01 -0.6776415E-01  0.2395209E-01   0.8165198E+00 -0.4714181E+00 -0.3332573E+00
  0.2934772E-01 -0.8469648E-01 -0.2395209E-01   0.8165198E+00 -0.4714181E+00 -0.3332573E+00
  0.2934772E-01 -0.5083181E-01 -0.7185627E-01   0.8165198E+00 -0.4714181E+00 -0.3332573E+00
  0.5869549E-01  0.1185674E-16 -0.7185627E-01   0.8165198E+00 -0.4714181E+00 -0.3332573E+00
  0.8802317E-01  0.1693233E-01 -0.2395209E-01   0.8165198E+00 -0.4714181E+00 -0.3332573E+00
           4
  0.2934772E-01  0.5083181E-01  0.7185627E-01  -0.0000000E+00  0.8165665E+00  0.5772514E+00
  0.2934772E-01  0.8469648E-01  0.2395209E-01  -0.0000000E+00  0.8165665E+00  0.5772514E+00
 -0.2934772E-01  0.8469648E-01  0.2395209E-01  -0.0000000E+00  0.8165665E+00  0.5772514E+00
 -0.2934772E-01  0.5083181E-01  0.7185627E-01  -0.0000000E+00  0.8165665E+00  0.5772514E+00
           6
  0.2934772E-01 -0.5083181E-01  0.7185627E-01  -0.1453548E-15  0.1453548E-15  0.1000000E+01
  0.5869549E-01 -0.1185674E-16  0.7185627E-01  -0.1453548E-15  0.1453548E-15  0.1000000E+01
  0.2934772E-01  0.5083181E-01  0.7185627E-01  -0.1453548E-15  0.1453548E-15  0.1000000E+01
 -0.2934772E-01  0.5083181E-01  0.7185627E-01  -0.1453548E-15  0.1453548E-15  0.1000000E+01
 -0.5869549E-01  0.5928370E-17  0.7185627E-01  -0.1453548E-15  0.1453548E-15  0.1000000E+01
 -0.2934772E-01 -0.5083181E-01  0.7185627E-01  -0.1453548E-15  0.1453548E-15  0.1000000E+01
           4
  0.5869549E-01 -0.1185674E-16  0.7185627E-01   0.7071672E+00 -0.4082833E+00  0.5772515E+00
  0.2934772E-01 -0.5083181E-01  0.7185627E-01   0.7071672E+00 -0.4082833E+00  0.5772515E+00
  0.5867540E-01 -0.6776415E-01  0.2395209E-01   0.7071672E+00 -0.4082833E+00  0.5772515E+00
  0.8802317E-01 -0.1693233E-01  0.2395209E-01   0.7071672E+00 -0.4082833E+00  0.5772515E+00
           6
 -0.2934772E-01 -0.5083181E-01 -0.7185627E-01  -0.1453548E-15  0.1453548E-15 -0.1000000E+01
 -0.5869549E-01  0.2964185E-17 -0.7185627E-01  -0.1453548E-15  0.1453548E-15 -0.1000000E+01
 -0.2934772E-01  0.5083181E-01 -0.7185627E-01  -0.1453548E-15  0.1453548E-15 -0.1000000E+01
  0.2934772E-01  0.5083181E-01 -0.7185627E-01  -0.1453548E-15  0.1453548E-15 -0.1000000E+01
  0.5869549E-01  0.1185674E-16 -0.7185627E-01  -0.1453548E-15  0.1453548E-15 -0.1000000E+01
  0.2934772E-01 -0.5083181E-01 -0.7185627E-01  -0.1453548E-15  0.1453548E-15 -0.1000000E+01
           6
 -0.2934772E-01  0.8469648E-01  0.2395209E-01  -0.8165198E+00  0.4714181E+00  0.3332573E+00
 -0.5867540E-01  0.6776415E-01 -0.2395209E-01  -0.8165198E+00  0.4714181E+00  0.3332573E+00