(written by ASE)

16 atoms
3 atom types

0.0      5.16850  xlo xhi
0.0      5.16850  ylo yhi
0.0      6.25650  zlo zhi

Masses

     1      26.981538493059151 # Al
     2      6.9399999982147245 # Li
     3      15.998999995884349 # O

Atoms # atomic

     1   2      1.6436652598539285      3.5866170425841504      4.7465761509875461
     2   2      3.5866170425841504      1.6436652598539279      1.5821920503291809
     3   2     0.97147589136511014      0.9714758913651097      3.1643841006583617
     4   2      4.2588064110729658      4.2588064110729684                       0
     5   1      3.5390722970262476      1.6912100054118315      4.7465761509875461
     6   1      1.6912100054118324      3.5390722970262458      1.5821920503291809
     7   1      4.3063511566308703      4.3063511566308703      3.1643841006583617
     8   1     0.92393114580720703     0.92393114580720537                       0
     9   3      4.3831414852931712      1.0929944305653643      6.1844280243533092
    10   3     0.84714081714490819       4.137287871872716      3.0200439236949488
    11   3      3.7081355817844037      3.4622819683639432      4.6022359740241274
    12   3      1.5221467206536761       1.768000334074131       1.437851873365767
    13   3       4.137287871872716     0.84714081714490774      3.3087242776217765
    14   3      1.0929944305653645      4.3831414852931676     0.14434017696341553
    15   3      3.4622819683639441      3.7081355817844037      1.7265322272925971
    16   3      1.7680003340741324      1.5221467206536754      4.8909163279509604